 written on 13Jun2026 at 20:45:26 
   2.48202900000000       0.000000000000000E+000  0.000000000000000E+000
 -0.827343000000000        2.34007900000000       0.000000000000000E+000
 -0.827343000000000       -1.17004000000000        2.02656800000000     
           9
         229
    1    1    2    1    2    1    1    2    1    1    2    1    1    1    1
    1    1    1    1    1    2    2    1    1    2    2    1    1    1    1
    1    1    1    1    1    1    1    1    1    1    1    1    1    1    1
    1    1    1    1    1    1    1    1    1    1    1    2    1    2    1
    1    1    1    1    1    1    1    1    1    1    1    1    1    1    1
    1    1    1    1    1    1    1    1    1    1    1    1    1    1    1
    1    1    1    1    1    2    1    1    2    1    1    1    1    1    1
    1    1    1    1    1    1    2    1    1    1    1    1    2    1    1
    1    1    1    1    1    1    1    1    1    1    2    1    1    2    1
    1    1    1    1    1    1    1    1    1    1    1    1    1    1    1
    1    1    1    1    1    1    1    1    1    1    1    1    1    1    1
    1    1    1    1    1    2    1    2    1    1    1    1    1    1    1
    1    1    1    1    1    1    1    1    1    1    1    1    1    1    1
    1    1    1    1    1    1    1    1    2    2    1    1    2    2    1
    1    1    1    1    1    1    1    1    2    1    1    2    1    1    2
    1    2    1    1

   -4   -3   -1
    1    1   -0.25318401E-02  0.14227508E-12
    2    1    0.49353430E-03  0.20487431E-12
    3    1    0.29997148E-03 -0.91812929E-12
    4    1   -0.72213156E-04  0.14678016E-12
    5    1    0.10291176E-02 -0.26413724E-11
    6    1    0.17440243E-03  0.15789878E-11
    7    1   -0.11755432E-03  0.19142691E-11
    8    1    0.56233358E-03 -0.19048610E-11
    9    1   -0.15770744E-02 -0.18984506E-11
    1    2   -0.49353431E-03 -0.16738520E-11
    2    2   -0.42168569E-02  0.53543073E-11
    3    2    0.29616161E-02  0.35057356E-11
    4    2   -0.20563771E-02 -0.93126271E-11
    5    2    0.99922575E-03 -0.15110231E-11
    6    2    0.98311863E-03 -0.61205403E-11
    7    2   -0.69052515E-03 -0.18174091E-11
    8    2    0.30404869E-04 -0.52444133E-12
    9    2   -0.71818002E-04  0.25829028E-11
    1    3   -0.29997148E-03 -0.44361468E-11
    2    3    0.29616160E-02 -0.36567607E-11
    3    3   -0.23983709E-02 -0.44006604E-11
    4    3    0.24068440E-02 -0.53571245E-11
    5    3   -0.34143737E-03  0.13309319E-11
    6    3    0.14208731E-02 -0.32496237E-11
    7    3    0.34259011E-03 -0.55613557E-12
    8    3    0.13122652E-02 -0.31771669E-11
    9    3   -0.34919438E-03  0.46080032E-11
    1    4    0.72213159E-04 -0.44653430E-11
    2    4   -0.20563771E-02 -0.22098087E-11
    3    4    0.24068440E-02  0.33024616E-11
    4    4   -0.64933643E-03  0.41587012E-11
    5    4    0.26355612E-03  0.36597201E-11
    6    4    0.40089148E-03 -0.53045763E-11
    7    4    0.17035481E-02  0.14913409E-11
    8    4    0.13463688E-02  0.45409015E-11
    9    4    0.10166617E-02 -0.19076411E-11
    1    5    0.10291176E-02 -0.30533683E-11
    2    5   -0.99922575E-03 -0.22726942E-11
    3    5    0.34143736E-03 -0.33964064E-12
    4    5   -0.26355612E-03 -0.57316287E-11
    5    5   -0.76280795E-03  0.31728092E-12
    6    5    0.39440241E-04 -0.30311604E-12
    7    5   -0.23452470E-04  0.13254697E-11
    8    5    0.53381921E-03 -0.14539350E-11
    9    5   -0.15094220E-02 -0.52000125E-12
    1    6    0.17440243E-03 -0.65903359E-12
    2    6   -0.98311864E-03  0.20075881E-11
    3    6   -0.14208731E-02 -0.82416608E-11
    4    6   -0.40089147E-03  0.70226989E-12
    5    6    0.39440241E-04  0.33722374E-12
    6    6    0.17181525E-03  0.47271215E-13
    7    6   -0.72057195E-04  0.14219445E-11
    8    6    0.14691425E-03 -0.15975871E-12
    9    6   -0.36080205E-04 -0.37313100E-12
    1    7   -0.11755433E-03 -0.33900383E-11
    2    7    0.69052516E-03  0.56918879E-11
    3    7   -0.34259011E-03  0.98678021E-11
    4    7   -0.17035481E-02  0.10917343E-11
    5    7   -0.23452471E-04 -0.77191335E-12
    6    7   -0.72057196E-04 -0.77363148E-12
    7    7    0.11754712E-03  0.71862655E-12
    8    7    0.15843478E-03  0.77385369E-12
    9    7    0.10724155E-03  0.11014024E-11
    1    8    0.56233358E-03 -0.11267207E-11
    2    8   -0.30404863E-04  0.10940940E-11
    3    8   -0.13122652E-02 -0.76069533E-12
    4    8   -0.13463689E-02 -0.41186273E-11
    5    8    0.53381921E-03 -0.20011900E-12
    6    8    0.14691425E-03 -0.64926016E-12
    7    8    0.15843478E-03  0.96005257E-12
    8    8    0.21909506E-03  0.31164307E-12
    9    8   -0.30762066E-03  0.11996363E-11
    1    9   -0.15770744E-02  0.19587647E-11
    2    9    0.71818006E-04 -0.13705912E-11
    3    9    0.34919439E-03 -0.17176182E-11
    4    9   -0.10166617E-02  0.74513585E-11
    5    9   -0.15094220E-02  0.35417491E-12
    6    9   -0.36080206E-04  0.73795747E-12
    7    9    0.10724154E-03 -0.21531535E-11
    8    9   -0.30762066E-03 -0.95981252E-12
    9    9    0.96751535E-03  0.12695643E-11

   -4   -2   -2
    1    1   -0.80379659E-03 -0.49950322E-12
    2    1   -0.70161178E-03  0.43023571E-11
    3    1   -0.11776513E-02  0.56618295E-11
    4    1   -0.36892915E-03  0.54048536E-11
    5    1   -0.18562195E-03  0.83910223E-12
    6    1    0.34958401E-03  0.10321605E-12
    7    1   -0.49803449E-03  0.26197430E-11
    8    1   -0.21103341E-03 -0.99456142E-12
    9    1    0.19646665E-03  0.34295219E-11
    1    2    0.70161178E-03 -0.32402622E-11
    2    2   -0.29771878E-02  0.87811702E-13
    3    2   -0.43324612E-02 -0.14487560E-11
    4    2   -0.21586898E-02 -0.28832076E-11
    5    2    0.13459107E-02  0.48340680E-11
    6    2   -0.77561623E-04 -0.44968933E-12
    7    2    0.17688947E-02  0.14007857E-11
    8    2   -0.61457423E-03 -0.22697744E-11
    9    2    0.19864061E-03  0.38837294E-11
    1    3    0.11776513E-02 -0.58211708E-11
    2    3   -0.43324612E-02  0.34094064E-11
    3    3   -0.79276202E-02  0.62278793E-11
    4    3   -0.25797142E-02 -0.18148951E-10
    5    3   -0.55978254E-03  0.18991388E-11
    6    3   -0.12367063E-02  0.31573268E-11
    7    3    0.79325195E-03 -0.54224365E-11
    8    3    0.19055845E-02 -0.17335283E-11
    9    3   -0.73380980E-03 -0.65760015E-11
    1    4    0.36892916E-03  0.19211039E-11
    2    4   -0.21586898E-02  0.43551586E-11
    3    4   -0.25797142E-02  0.65674350E-11
    4    4   -0.55941863E-03  0.45760618E-12
    5    4    0.10280020E-02 -0.14222044E-11
    6    4    0.19406639E-03  0.12090670E-12
    7    4    0.81785761E-03 -0.50455065E-11
    8    4   -0.17294869E-03 -0.15948007E-11
    9    4   -0.38580880E-03  0.26744193E-11
    1    5   -0.18562196E-03 -0.25099020E-12
    2    5   -0.13459107E-02  0.13658987E-11
    3    5    0.55978254E-03  0.16024257E-11
    4    5   -0.10280020E-02 -0.53325573E-12
    5    5   -0.38539426E-03 -0.40304912E-12
    6    5   -0.26984524E-03  0.10445741E-11
    7    5   -0.27368007E-03 -0.11844731E-11
    8    5    0.21047355E-03 -0.21698367E-11
    9    5   -0.42276292E-03  0.71594998E-12
    1    6    0.34958401E-03  0.70078231E-12
    2    6    0.77561614E-04  0.67808116E-11
    3    6    0.12367063E-02  0.26901944E-11
    4    6   -0.19406639E-03  0.12195480E-11
    5    6   -0.26984524E-03  0.99863520E-12
    6    6    0.98006430E-03 -0.96026312E-12
    7    6    0.52595306E-04 -0.12313601E-11
    8    6    0.89013320E-03  0.30330621E-12
    9    6    0.49186337E-03  0.15294905E-12
    1    7   -0.49803450E-03  0.17106403E-11
    2    7   -0.17688947E-02 -0.22437330E-11
    3    7   -0.79325195E-03 -0.24437048E-11
    4    7   -0.81785760E-03  0.32532232E-11
    5    7   -0.27368007E-03 -0.88168101E-12
    6    7    0.52595305E-04  0.12792382E-12
    7    7   -0.14355608E-03  0.64370037E-12
    8    7    0.41095715E-03  0.46358593E-12
    9    7    0.21381534E-03 -0.29683851E-12
    1    8   -0.21103341E-03 -0.63206428E-12
    2    8    0.61457424E-03  0.60460733E-11
    3    8   -0.19055845E-02  0.14538128E-11
    4    8    0.17294870E-03  0.29113005E-11
    5    8    0.21047355E-03 -0.31553406E-12
    6    8    0.89013320E-03  0.58872547E-12
    7    8    0.41095715E-03 -0.61862944E-12
    8    8    0.14871106E-04  0.13534868E-11
    9    8    0.36082923E-03  0.18009921E-11
    1    9    0.19646665E-03 -0.16122203E-11
    2    9   -0.19864061E-03 -0.30871148E-11
    3    9    0.73380981E-03  0.14847385E-11
    4    9    0.38580880E-03  0.30371951E-11
    5    9   -0.42276292E-03 -0.19117314E-12
    6    9    0.49186337E-03  0.95952415E-12
    7    9    0.21381534E-03 -0.13418132E-11
    8    9    0.36082923E-03 -0.96408818E-12
    9    9    0.39495698E-03  0.29470003E-11

   -4   -2   -1
    1    1   -0.11697951E-02 -0.24961283E-11
    2    1    0.68904424E-03  0.76962030E-11
    3    1    0.33048259E-04 -0.84639847E-12
    4    1    0.12656701E-02  0.13471852E-10
    5    1    0.79616159E-03  0.18169528E-11
    6    1   -0.84478855E-04 -0.37956790E-12
    7    1    0.16867172E-04  0.12644660E-12
    8    1   -0.14302288E-02  0.15111308E-11
    9    1    0.34423932E-04 -0.90971458E-12
    1    2   -0.68904425E-03 -0.39447213E-11
    2    2    0.11752139E-02 -0.70246586E-11
    3    2    0.38324711E-03  0.12864692E-11
    4    2    0.63922707E-03  0.27558650E-11
    5    2   -0.17864573E-04  0.10251583E-11
    6    2    0.11212561E-02 -0.20739443E-11
    7    2   -0.71408611E-03  0.59608022E-11
    8    2   -0.75538286E-03 -0.69122457E-11
    9    2    0.44242259E-03  0.35778241E-11
    1    3   -0.33048275E-04  0.44362300E-11
    2    3    0.38324711E-03 -0.46883608E-11
    3    3   -0.39289851E-02  0.85985385E-12
    4    3   -0.29793857E-03  0.13847774E-10
    5    3    0.79848645E-03 -0.18821654E-11
    6    3    0.34769617E-03 -0.49197790E-11
    7    3    0.53691221E-03 -0.27903258E-11
    8    3    0.46221199E-03 -0.35338728E-11
    9    3    0.65014176E-03  0.84518577E-11
    1    4   -0.12656701E-02  0.16756478E-10
    2    4    0.63922708E-03  0.41727906E-11
    3    4   -0.29793856E-03 -0.50929842E-11
    4    4    0.18423411E-02  0.34382219E-12
    5    4    0.11113576E-02 -0.13437949E-11
    6    4    0.87908951E-03 -0.36153699E-11
    7    4   -0.39804615E-03  0.22110733E-11
    8    4   -0.59220809E-03  0.17544109E-11
    9    4   -0.11083214E-02 -0.13930913E-10
    1    5    0.79616159E-03 -0.21098531E-11
    2    5    0.17864571E-04 -0.48437348E-11
    3    5   -0.79848645E-03  0.83003309E-12
    4    5   -0.11113576E-02 -0.22846308E-14
    5    5    0.27206435E-03  0.13874214E-11
    6    5    0.39240032E-03 -0.15023668E-11
    7    5    0.41221616E-03 -0.24256096E-11
    8    5    0.10775195E-02 -0.15159499E-12
    9    5    0.45398343E-03 -0.12658650E-11
    1    6   -0.84478851E-04  0.10213002E-11
    2    6   -0.11212562E-02  0.95031448E-12
    3    6   -0.34769616E-03  0.37427119E-11
    4    6   -0.87908951E-03  0.64808227E-11
    5    6    0.39240032E-03  0.32367078E-12
    6    6   -0.55336928E-03 -0.31183389E-13
    7    6    0.42175823E-03 -0.17022483E-11
    8    6   -0.24640387E-03  0.65360044E-14
    9    6    0.53183399E-03  0.32095722E-11
    1    7    0.16867177E-04  0.15188371E-13
    2    7    0.71408611E-03  0.94730760E-11
    3    7   -0.53691222E-03 -0.34760570E-11
    4    7    0.39804615E-03  0.32272119E-11
    5    7    0.41221616E-03 -0.32346695E-12
    6    7    0.42175823E-03 -0.23176589E-11
    7    7    0.44487222E-03  0.55555560E-12
    8    7    0.12343637E-03 -0.27197970E-12
    9    7    0.21568811E-03  0.15631246E-12
    1    8   -0.14302288E-02 -0.21181084E-11
    2    8    0.75538285E-03  0.69675549E-11
    3    8   -0.46221198E-03 -0.48587696E-12
    4    8    0.59220810E-03 -0.54650694E-11
    5    8    0.10775195E-02  0.52792894E-12
    6    8   -0.24640387E-03 -0.38681796E-12
    7    8    0.12343637E-03 -0.47592670E-12
    8    8   -0.85001666E-03 -0.18759438E-11
    9    8    0.53855493E-03 -0.21922885E-11
    1    9    0.34423933E-04 -0.15315201E-11
    2    9   -0.44242260E-03 -0.10796158E-11
    3    9   -0.65014176E-03  0.53498829E-12
    4    9    0.11083214E-02 -0.97349212E-13
    5    9    0.45398344E-03  0.26311440E-12
    6    9    0.53183399E-03  0.99737609E-12
    7    9    0.21568811E-03 -0.10367720E-11
    8    9    0.53855493E-03 -0.24138460E-13
    9    9    0.67041932E-04 -0.36162393E-12

   -4   -1   -3
    1    1   -0.26796219E-02 -0.15166271E-11
    2    1   -0.24557712E-04  0.15413122E-11
    3    1    0.24074329E-03  0.24388035E-11
    4    1    0.44191158E-03  0.17953070E-11
    5    1   -0.61344744E-03  0.15583585E-11
    6    1   -0.13345025E-02 -0.22696983E-11
    7    1    0.95719505E-03  0.20632957E-11
    8    1   -0.34997672E-03 -0.22434166E-11
    9    1    0.10107253E-02  0.12477497E-11
    1    2    0.24557709E-04 -0.29352458E-11
    2    2   -0.33410532E-02 -0.49425741E-13
    3    2    0.36698679E-02  0.36256935E-12
    4    2   -0.25451119E-02  0.28902297E-11
    5    2   -0.90625041E-05  0.65104779E-12
    6    2    0.11642992E-02 -0.12063484E-12
    7    2    0.16427850E-02  0.61671050E-11
    8    2    0.72918960E-03  0.19823009E-11
    9    2    0.24828293E-03 -0.31580644E-11
    1    3   -0.24074329E-03 -0.16878868E-11
    2    3    0.36698679E-02  0.15395029E-11
    3    3   -0.23830919E-02  0.10137211E-10
    4    3    0.12853120E-02  0.65798807E-11
    5    3   -0.53457058E-03  0.43159001E-11
    6    3    0.42207472E-03 -0.18343140E-12
    7    3    0.49338940E-03 -0.68592976E-11
    8    3    0.12181494E-02 -0.15611540E-11
    9    3    0.14112124E-02  0.91958515E-12
    1    4   -0.44191158E-03 -0.23853298E-11
    2    4   -0.25451119E-02  0.29378583E-11
    3    4    0.12853120E-02 -0.71164775E-11
    4    4   -0.14032939E-02  0.28109598E-11
    5    4   -0.74405584E-03  0.24917169E-11
    6    4   -0.19608792E-03  0.27458729E-11
    7    4   -0.40473343E-03 -0.21863119E-11
    8    4   -0.14721262E-02 -0.54893564E-11
    9    4    0.85786083E-03  0.12618652E-11
    1    5   -0.61344744E-03  0.33546377E-11
    2    5    0.90625069E-05  0.26828123E-11
    3    5    0.53457058E-03 -0.52905397E-11
    4    5    0.74405584E-03 -0.35324868E-12
    5    5    0.96621383E-04  0.10326462E-12
    6    5    0.32085809E-03 -0.26580908E-12
    7    5   -0.22854562E-03  0.23037826E-11
    8    5    0.12578989E-03 -0.64161691E-12
    9    5   -0.35408318E-03  0.13975202E-11
    1    6   -0.13345025E-02 -0.65455454E-12
    2    6   -0.11642992E-02  0.10997292E-11
    3    6   -0.42207472E-03  0.29100593E-12
    4    6    0.19608792E-03 -0.42055933E-11
    5    6    0.32085809E-03  0.35569507E-12
    6    6    0.74325943E-03  0.82655410E-12
    7    6   -0.10036789E-02 -0.37196683E-12
    8    6    0.74527684E-03  0.12289104E-11
    9    6   -0.34593965E-03  0.53098042E-13
    1    7    0.95719505E-03  0.12428374E-11
    2    7   -0.16427850E-02  0.11714171E-11
    3    7   -0.49338941E-03  0.35852070E-11
    4    7    0.40473344E-03  0.49601035E-12
    5    7   -0.22854561E-03  0.90139658E-12
    6    7   -0.10036789E-02 -0.10450527E-12
    7    7    0.31112214E-04 -0.91966018E-12
    8    7    0.64396463E-03 -0.50428785E-12
    9    7    0.65587692E-03 -0.17735509E-12
    1    8   -0.34997671E-03 -0.47084949E-12
    2    8   -0.72918961E-03 -0.54097760E-11
    3    8   -0.12181494E-02  0.15910970E-11
    4    8    0.14721262E-02  0.83824510E-11
    5    8    0.12578989E-03  0.27954375E-12
    6    8    0.74527684E-03  0.41202913E-12
    7    8    0.64396463E-03 -0.16595465E-11
    8    8   -0.54599419E-03  0.25917463E-11
    9    8   -0.38646735E-03  0.77962766E-12
    1    9    0.10107254E-02 -0.11697379E-11
    2    9   -0.24828293E-03  0.14561415E-11
    3    9   -0.14112124E-02  0.19887893E-11
    4    9   -0.85786083E-03 -0.15946832E-11
    5    9   -0.35408318E-03  0.41566034E-13
    6    9   -0.34593965E-03 -0.81019878E-12
    7    9    0.65587692E-03 -0.23857218E-13
    8    9   -0.38646735E-03 -0.17819817E-12
    9    9    0.39883325E-03  0.24471050E-12

   -4   -1   -2
    1    1   -0.11405233E-02 -0.17276666E-11
    2    1    0.13168735E-02  0.10555634E-10
    3    1    0.36676872E-08  0.10480326E-10
    4    1    0.83260029E-09  0.58650827E-11
    5    1    0.84855048E-03  0.22256684E-11
    6    1   -0.60091429E-10 -0.21306585E-11
    7    1   -0.69462653E-09  0.27484950E-11
    8    1   -0.14236755E-02 -0.20719613E-11
    9    1   -0.79876634E-04 -0.10432931E-12
    1    2   -0.13168735E-02  0.32052486E-13
    2    2    0.22426313E-02 -0.52377408E-11
    3    2   -0.59348649E-08 -0.16605215E-10
    4    2    0.66096401E-08  0.85657384E-11
    5    2   -0.39729119E-04  0.18232204E-12
    6    2   -0.36523145E-09 -0.31852637E-11
    7    2   -0.31079370E-08  0.47745098E-11
    8    2   -0.14692212E-02 -0.49310553E-11
    9    2    0.15194773E-02 -0.33654651E-11
    1    3   -0.36710743E-08  0.69824710E-11
    2    3   -0.59183019E-08 -0.30511531E-12
    3    3   -0.39588656E-02  0.17681676E-10
    4    3    0.40708628E-03  0.86080578E-11
    5    3   -0.17113907E-09  0.21626321E-11
    6    3    0.73757663E-03  0.52308201E-11
    7    3    0.10698753E-02 -0.50430251E-11
    8    3    0.18454124E-08  0.78218682E-14
    9    3   -0.19623290E-09  0.48603981E-11
    1    4   -0.82901080E-09  0.44726028E-11
    2    4    0.66292788E-08 -0.43477374E-12
    3    4    0.40708627E-03  0.98021096E-11
    4    4    0.76267690E-03  0.26660757E-11
    5    4   -0.17639874E-08 -0.33317498E-11
    6    4    0.10824581E-02 -0.23423171E-11
    7    4   -0.81721517E-03 -0.29797172E-12
    8    4   -0.54115116E-09 -0.20352556E-11
    9    4   -0.20433289E-08 -0.28348669E-11
    1    5    0.84855048E-03 -0.17162721E-11
    2    5    0.39729117E-04  0.68384534E-13
    3    5    0.17273629E-09  0.58261009E-11
    4    5    0.17655164E-08 -0.57475292E-11
    5    5   -0.11135509E-03  0.17783691E-12
    6    5    0.48202445E-10 -0.58794115E-12
    7    5    0.56830510E-09 -0.53788181E-12
    8    5    0.67330541E-03 -0.11110393E-11
    9    5    0.49442451E-03 -0.88815500E-12
    1    6   -0.55096394E-10  0.29983576E-11
    2    6    0.35749054E-09  0.67497032E-11
    3    6   -0.73757663E-03 -0.42862788E-11
    4    6   -0.10824581E-02  0.64274808E-11
    5    6    0.46805533E-10  0.49554848E-12
    6    6    0.37844998E-03  0.53214377E-12
    7    6    0.79443070E-03 -0.12356666E-11
    8    6   -0.23718861E-09  0.12610592E-11
    9    6    0.13107464E-09  0.71870496E-12
    1    7   -0.69484457E-09 -0.21002774E-11
    2    7    0.30882202E-08 -0.29241080E-11
    3    7   -0.10698753E-02  0.11948842E-11
    4    7    0.81721517E-03  0.37992057E-11
    5    7    0.56648503E-09  0.10695902E-11
    6    7    0.79443070E-03  0.46345588E-12
    7    7    0.11630938E-02  0.32875300E-11
    8    7   -0.13082929E-09 -0.91657021E-12
    9    7   -0.82932560E-10 -0.23304882E-12
    1    8   -0.14236755E-02 -0.47775306E-11
    2    8    0.14692212E-02  0.25104831E-11
    3    8   -0.18418131E-08 -0.76248331E-11
    4    8    0.54086457E-09  0.66164123E-11
    5    8    0.67330541E-03 -0.15441954E-11
    6    8   -0.23827363E-09  0.10634430E-11
    7    8   -0.12895113E-09  0.15714322E-11
    8    8   -0.11811309E-02 -0.21001915E-11
    9    8   -0.26002360E-03 -0.16971916E-11
    1    9   -0.79876628E-04 -0.58132752E-13
    2    9   -0.15194773E-02  0.39206383E-11
    3    9    0.19549354E-09 -0.11153608E-11
    4    9    0.20445598E-08 -0.14268118E-11
    5    9    0.49442452E-03  0.24654194E-12
    6    9    0.13067770E-09  0.47489397E-12
    7    9   -0.81073689E-10 -0.39474435E-12
    8    9   -0.26002359E-03 -0.17271629E-11
    9    9   -0.85563248E-03 -0.13177376E-11

   -3   -4   -2
    1    1   -0.99163451E-03 -0.13392610E-12
    2    1   -0.31664677E-03 -0.11110730E-11
    3    1    0.60432063E-04 -0.23796815E-11
    4    1    0.11229415E-02 -0.10585595E-11
    5    1   -0.82803732E-03  0.21441000E-12
    6    1   -0.70460954E-03  0.29178006E-11
    7    1   -0.11013265E-02 -0.60813529E-11
    8    1    0.15378879E-03 -0.43360863E-12
    9    1   -0.39735117E-03 -0.15773350E-11
    1    2    0.31664676E-03  0.17973647E-10
    2    2   -0.18845348E-02  0.17718832E-10
    3    2   -0.16343106E-02 -0.22653113E-11
    4    2   -0.25508973E-02  0.48840936E-11
    5    2   -0.82809034E-03  0.32384512E-12
    6    2    0.98239603E-03  0.57450520E-11
    7    2    0.46027052E-03 -0.19513891E-10
    8    2   -0.51769813E-03 -0.73877733E-11
    9    2    0.21087024E-03 -0.30489972E-11
    1    3   -0.60432066E-04 -0.73942068E-12
    2    3   -0.16343106E-02 -0.48044772E-11
    3    3   -0.66453095E-04  0.39197191E-11
    4    3   -0.95765301E-03 -0.43977734E-11
    5    3    0.28270163E-03 -0.53386306E-11
    6    3    0.66015934E-03 -0.30999127E-11
    7    3   -0.19327958E-03  0.79397908E-11
    8    3    0.18082926E-03 -0.76865250E-12
    9    3   -0.11283074E-02 -0.19673048E-11
    1    4   -0.11229415E-02 -0.15748479E-11
    2    4   -0.25508973E-02 -0.17632964E-10
    3    4   -0.95765301E-03  0.66529237E-11
    4    4    0.89906711E-03 -0.12118980E-10
    5    4   -0.55319578E-03  0.27797001E-11
    6    4   -0.14521778E-02  0.74138926E-12
    7    4    0.35091820E-03  0.27078843E-11
    8    4   -0.15743842E-03  0.46065218E-11
    9    4   -0.10463536E-02 -0.26568183E-11
    1    5   -0.82803732E-03  0.63602474E-12
    2    5    0.82809033E-03  0.28533530E-11
    3    5   -0.28270163E-03 -0.29424900E-12
    4    5    0.55319577E-03  0.26195157E-11
    5    5   -0.15267378E-03 -0.25849714E-13
    6    5   -0.38996512E-03 -0.78576017E-12
    7    5   -0.12039107E-02 -0.13213252E-11
    8    5    0.53495708E-03 -0.13728363E-11
    9    5    0.53184216E-03 -0.16564953E-11
    1    6   -0.70460954E-03 -0.58652829E-12
    2    6   -0.98239603E-03  0.25287064E-12
    3    6   -0.66015934E-03 -0.91949712E-12
    4    6    0.14521778E-02 -0.36126191E-12
    5    6   -0.38996512E-03 -0.12773814E-11
    6    6   -0.38928195E-03  0.31247294E-12
    7    6    0.13524937E-03  0.36822586E-11
    8    6   -0.15283495E-03 -0.61066809E-12
    9    6   -0.56584735E-03 -0.46072872E-12
    1    7   -0.11013265E-02  0.35880556E-11
    2    7   -0.46027051E-03 -0.10349339E-10
    3    7    0.19327958E-03 -0.34578759E-11
    4    7   -0.35091820E-03  0.33851220E-12
    5    7   -0.12039107E-02  0.27982467E-11
    6    7    0.13524937E-03  0.27123789E-12
    7    7   -0.67519112E-03  0.14142052E-11
    8    7    0.23376818E-03  0.80113977E-12
    9    7   -0.42244996E-03  0.19880089E-12
    1    8    0.15378879E-03 -0.92534544E-12
    2    8    0.51769813E-03 -0.26913791E-11
    3    8   -0.18082926E-03 -0.17613272E-11
    4    8    0.15743842E-03  0.16069958E-12
    5    8    0.53495708E-03 -0.10211266E-11
    6    8   -0.15283494E-03  0.18628453E-12
    7    8    0.23376818E-03  0.37193111E-12
    8    8    0.30311960E-03 -0.13306195E-12
    9    8    0.34165390E-03  0.12627594E-13
    1    9   -0.39735117E-03  0.15485486E-11
    2    9   -0.21087025E-03  0.19201714E-11
    3    9    0.11283074E-02 -0.38144436E-11
    4    9    0.10463536E-02  0.80343779E-11
    5    9    0.53184216E-03 -0.11842784E-12
    6    9   -0.56584735E-03 -0.33976042E-12
    7    9   -0.42244996E-03 -0.15851167E-11
    8    9    0.34165389E-03  0.66980715E-12
    9    9    0.25694619E-03  0.64323448E-13

   -3   -4   -1
    1    1   -0.25318390E-02  0.53292093E-12
    2    1    0.49353564E-03 -0.21583672E-11
    3    1   -0.29997204E-03  0.80331028E-11
    4    1    0.72215852E-04  0.16924673E-11
    5    1    0.10291173E-02 -0.15606405E-11
    6    1   -0.17440387E-03  0.14104594E-11
    7    1    0.11755233E-03 -0.23500698E-11
    8    1    0.56233499E-03  0.13480467E-11
    9    1   -0.15770731E-02 -0.40249149E-11
    1    2   -0.49353564E-03 -0.68113917E-12
    2    2   -0.42168621E-02  0.47842702E-11
    3    2   -0.29616128E-02  0.56091919E-11
    4    2    0.20563809E-02 -0.30040727E-11
    5    2    0.99922257E-03 -0.71354554E-12
    6    2   -0.98311818E-03 -0.35358882E-11
    7    2    0.69052123E-03 -0.71020221E-11
    8    2    0.30402514E-04 -0.27785250E-11
    9    2   -0.71820093E-04  0.24470739E-11
    1    3    0.29997204E-03  0.46728220E-11
    2    3   -0.29616128E-02  0.41855408E-11
    3    3   -0.23983705E-02  0.18624130E-11
    4    3    0.24068541E-02 -0.48369225E-11
    5    3    0.34143473E-03  0.20458860E-11
    6    3    0.14208701E-02 -0.10447346E-11
    7    3    0.34259178E-03 -0.14521221E-12
    8    3   -0.13122619E-02  0.27557852E-11
    9    3    0.34918877E-03 -0.63072074E-11
    1    4   -0.72215854E-04 -0.23367593E-12
    2    4    0.20563809E-02 -0.12203624E-10
    3    4    0.24068541E-02  0.28106172E-11
    4    4   -0.64932972E-03  0.64527828E-11
    5    4   -0.26355453E-03  0.38898954E-11
    6    4    0.40088989E-03 -0.54363182E-11
    7    4    0.17035470E-02  0.21552031E-12
    8    4   -0.13463653E-02  0.21816342E-11
    9    4   -0.10166657E-02 -0.62117889E-12
    1    5    0.10291173E-02 -0.11363020E-11
    2    5   -0.99922257E-03 -0.20984811E-11
    3    5   -0.34143473E-03 -0.32422320E-11
    4    5    0.26355452E-03 -0.28295751E-11
    5    5   -0.76280847E-03  0.33598124E-13
    6    5   -0.39439573E-04 -0.17978761E-12
    7    5    0.23453117E-04  0.19419722E-11
    8    5    0.53381913E-03  0.42202255E-12
    9    5   -0.15094229E-02  0.42756825E-12
    1    6   -0.17440387E-03  0.22997932E-11
    2    6    0.98311817E-03  0.49424826E-11
    3    6   -0.14208701E-02 -0.56500143E-11
    4    6   -0.40088989E-03  0.16286567E-11
    5    6   -0.39439574E-04  0.79857822E-12
    6    6    0.17181571E-03  0.14258039E-12
    7    6   -0.72057052E-04  0.12822875E-12
    8    6   -0.14691512E-03 -0.23151361E-11
    9    6    0.36078017E-04 -0.20319814E-12
    1    7    0.11755233E-03  0.28041354E-11
    2    7   -0.69052123E-03  0.18788651E-11
    3    7   -0.34259178E-03  0.52794226E-11
    4    7   -0.17035470E-02 -0.19245161E-11
    5    7    0.23453117E-04  0.15880422E-11
    6    7   -0.72057051E-04 -0.22124997E-11
    7    7    0.11754472E-03 -0.52762308E-12
    8    7   -0.15843474E-03 -0.25629786E-11
    9    7   -0.10724160E-03 -0.11390932E-11
    1    8    0.56233498E-03  0.65772041E-13
    2    8   -0.30402507E-04  0.11856084E-11
    3    8    0.13122619E-02  0.11438819E-11
    4    8    0.13463653E-02 -0.36760118E-11
    5    8    0.53381913E-03  0.20015483E-11
    6    8   -0.14691512E-03 -0.12270831E-11
    7    8   -0.15843474E-03 -0.50472647E-12
    8    8    0.21909341E-03  0.12308904E-11
    9    8   -0.30762083E-03 -0.62484067E-12
    1    9   -0.15770731E-02  0.31168059E-11
    2    9    0.71820096E-04 -0.53031009E-11
    3    9   -0.34918877E-03  0.13495975E-12
    4    9    0.10166657E-02 -0.16217084E-11
    5    9   -0.15094229E-02 -0.34717075E-12
    6    9    0.36078016E-04 -0.13123366E-11
    7    9   -0.10724160E-03  0.14399309E-11
    8    9   -0.30762083E-03 -0.10155212E-11
    9    9    0.96751588E-03 -0.17798263E-13

   -3   -3   -3
    1    1   -0.71954288E-02 -0.57521484E-15
    2    1   -0.40324796E-12 -0.12605198E-10
    3    1   -0.81636508E-11 -0.79861760E-11
    4    1    0.54354721E-11 -0.72281382E-11
    5    1   -0.20303088E-02 -0.15036802E-11
    6    1   -0.17647540E-02  0.12650795E-11
    7    1   -0.25179753E-02 -0.31620746E-11
    8    1    0.33247099E-03  0.14062568E-11
    9    1   -0.90503956E-03  0.31433887E-11
    1    2   -0.29889395E-12  0.12605198E-10
    2    2    0.11741334E-01 -0.10366906E-14
    3    2    0.25377835E-02  0.23173221E-11
    4    2    0.37374149E-02  0.19491933E-11
    5    2    0.27110130E-11 -0.98995343E-11
    6    2   -0.29020586E-11 -0.21172248E-11
    7    2    0.13042996E-13 -0.74468626E-11
    8    2    0.31651083E-11  0.60714854E-11
    9    2   -0.34891310E-11 -0.60466383E-12
    1    3   -0.81194004E-11  0.79861760E-11
    2    3    0.25377835E-02 -0.23173274E-11
    3    3    0.53458857E-02 -0.52924918E-15
    4    3    0.12349627E-02  0.26381918E-11
    5    3   -0.30081036E-11 -0.25970302E-11
    6    3    0.19079903E-12 -0.32883609E-11
    7    3   -0.59396898E-11  0.31793431E-11
    8    3    0.24406242E-12  0.15459196E-11
    9    3   -0.25741174E-11 -0.71715377E-11
    1    4    0.54982275E-11  0.72281382E-11
    2    4    0.37374149E-02 -0.19492002E-11
    3    4    0.12349627E-02 -0.26386281E-11
    4    4    0.62370259E-02 -0.73393228E-15
    5    4    0.49709646E-11 -0.10575707E-11
    6    4    0.48924090E-11  0.27372039E-12
    7    4    0.16627683E-11 -0.18872213E-11
    8    4    0.38264735E-12  0.46624649E-11
    9    4   -0.14264760E-11 -0.22273199E-11
    1    5   -0.20303088E-02  0.15038955E-11
    2    5    0.26754054E-11  0.98995343E-11
    3    5   -0.29539275E-11  0.25970302E-11
    4    5    0.50481824E-11  0.10575707E-11
    5    5   -0.20820379E-03 -0.26868367E-15
    6    5   -0.23679160E-02  0.28923664E-12
    7    5   -0.33696103E-02 -0.98272318E-12
    8    5    0.29659034E-03 -0.61805820E-12
    9    5   -0.81330178E-03  0.39091790E-12
    1    6   -0.17647540E-02 -0.12650748E-11
    2    6   -0.28691718E-11  0.21172248E-11
    3    6    0.11787447E-12  0.32883609E-11
    4    6    0.49411275E-11 -0.27372039E-12
    5    6   -0.23679160E-02 -0.28923180E-12
    6    6   -0.73858624E-03 -0.27481807E-15
    7    6   -0.22079080E-02 -0.68908204E-12
    8    6    0.68826215E-03 -0.10714067E-11
    9    6   -0.92034811E-03  0.74410890E-12
    1    7   -0.25179753E-02  0.31620814E-11
    2    7    0.58677043E-13  0.74468626E-11
    3    7   -0.58903499E-11 -0.31793431E-11
    4    7    0.16255513E-11  0.18872213E-11
    5    7   -0.33696103E-02  0.98273000E-12
    6    7   -0.22079080E-02  0.68914226E-12
    7    7   -0.23123329E-02 -0.24110855E-15
    8    7    0.29337108E-03  0.13228411E-11
    9    7   -0.15427148E-02  0.12463107E-11
    1    8    0.33247099E-03 -0.14063246E-11
    2    8    0.31483777E-11 -0.60714854E-11
    3    8    0.20405313E-12 -0.15459196E-11
    4    8    0.42961493E-12 -0.46624649E-11
    5    8    0.29659034E-03  0.61806054E-12
    6    8    0.68826215E-03  0.10714001E-11
    7    8    0.29337108E-03 -0.13228356E-11
    8    8    0.21230868E-02 -0.30024027E-15
    9    8    0.68260975E-03  0.67491093E-12
    1    9   -0.90503956E-03 -0.31431953E-11
    2    9   -0.34398513E-11  0.60466383E-12
    3    9   -0.26156482E-11  0.71715377E-11
    4    9   -0.14497914E-11  0.22273199E-11
    5    9   -0.81330178E-03 -0.39092549E-12
    6    9   -0.92034811E-03 -0.74411245E-12
    7    9   -0.15427148E-02 -0.12463105E-11
    8    9    0.68260975E-03 -0.67495472E-12
    9    9    0.44557327E-03 -0.24474853E-15

   -3   -3   -2
    1    1    0.32502203E-03 -0.40684123E-12
    2    1    0.26546383E-03  0.50563720E-12
    3    1   -0.32036557E-03 -0.33558234E-11
    4    1   -0.36426233E-03 -0.33600657E-11
    5    1   -0.17180144E-02  0.35749069E-11
    6    1   -0.13210703E-02  0.30136909E-11
    7    1   -0.18725831E-02  0.49317989E-11
    8    1    0.15960704E-03 -0.13916828E-11
    9    1   -0.41611117E-03  0.63643622E-12
    1    2   -0.26546382E-03 -0.39416977E-11
    2    2    0.66750744E-02 -0.13039778E-10
    3    2    0.94012492E-04 -0.33375403E-11
    4    2    0.20838284E-03 -0.13753356E-10
    5    2   -0.21083100E-02  0.61138213E-11
    6    2    0.22982693E-03 -0.47618337E-11
    7    2    0.32347670E-03  0.37925583E-11
    8    2   -0.91187499E-03 -0.36733313E-11
    9    2    0.25620250E-02  0.85424815E-11
    1    3    0.32036557E-03 -0.30178160E-11
    2    3    0.94012498E-04 -0.67015629E-11
    3    3   -0.18860569E-03  0.78301254E-12
    4    3   -0.61733788E-02 -0.11845577E-10
    5    3   -0.36717769E-02 -0.34260468E-11
    6    3   -0.12282892E-02 -0.40243737E-11
    7    3   -0.19139906E-02  0.12394427E-10
    8    3    0.11712595E-02  0.79889984E-11
    9    3   -0.22454198E-03  0.26818738E-12
    1    4    0.36426233E-03  0.61186715E-11
    2    4    0.20838284E-03 -0.94688875E-11
    3    4   -0.61733788E-02 -0.13565598E-11
    4    4   -0.46091033E-02 -0.12418289E-10
    5    4   -0.53008660E-02  0.43710608E-11
    6    4   -0.19645421E-02  0.78939471E-11
    7    4   -0.26662422E-02  0.52439459E-11
    8    4   -0.41966460E-03 -0.37701569E-11
    9    4   -0.10352767E-02 -0.13249250E-11
    1    5   -0.17180144E-02  0.22787631E-11
    2    5    0.21083100E-02 -0.39365056E-11
    3    5    0.36717769E-02  0.61819395E-11
    4    5    0.53008660E-02  0.16634489E-11
    5    5   -0.32732494E-02  0.25895328E-11
    6    5    0.10437496E-04  0.53137182E-12
    7    5    0.16370278E-04  0.13802687E-11
    8    5    0.12446550E-03 -0.16054563E-11
    9    5   -0.35105953E-03 -0.83472834E-13
    1    6   -0.13210703E-02  0.33952684E-11
    2    6   -0.22982693E-03 -0.12441988E-11
    3    6    0.12282892E-02  0.31948142E-11
    4    6    0.19645421E-02 -0.34374785E-11
    5    6    0.10437496E-04  0.20900135E-11
    6    6   -0.53814750E-03 -0.14486710E-11
    7    6   -0.84439122E-03  0.29540362E-12
    8    6    0.20683739E-03 -0.41133225E-11
    9    6   -0.51112068E-03  0.11787956E-12
    1    7   -0.18725831E-02  0.49060807E-11
    2    7   -0.32347670E-03 -0.16065448E-11
    3    7    0.19139906E-02 -0.88201958E-11
    4    7    0.26662422E-02 -0.18338733E-11
    5    7    0.16370277E-04  0.17322779E-11
    6    7   -0.84439122E-03  0.94892285E-12
    7    7   -0.11277425E-02  0.14146774E-11
    8    7    0.25279956E-03 -0.19023088E-11
    9    7   -0.73421207E-03  0.21223453E-11
    1    8    0.15960704E-03 -0.51640948E-11
    2    8    0.91187500E-03  0.13402864E-10
    3    8   -0.11712595E-02 -0.42306523E-11
    4    8    0.41966461E-03  0.11629336E-10
    5    8    0.12446549E-03 -0.14828897E-11
    6    8    0.20683739E-03 -0.34177054E-11
    7    8    0.25279956E-03 -0.13471127E-11
    8    8   -0.18748224E-03  0.19077726E-11
    9    8    0.13719121E-03  0.58960410E-12
    1    9   -0.41611117E-03 -0.27977794E-12
    2    9   -0.25620250E-02 -0.10216968E-10
    3    9    0.22454198E-03 -0.36085987E-11
    4    9    0.10352767E-02  0.69648931E-12
    5    9   -0.35105953E-03  0.80468217E-12
    6    9   -0.51112068E-03 -0.66777763E-12
    7    9   -0.73421207E-03  0.18367658E-11
    8    9    0.13719121E-03 -0.12946963E-11
    9    9   -0.48695273E-03  0.47791077E-11

   -3   -3   -1
    1    1   -0.12741356E-02  0.28861427E-11
    2    1    0.16155901E-02 -0.26785067E-11
    3    1    0.17632599E-02 -0.10797079E-10
    4    1    0.24346382E-02 -0.13357163E-11
    5    1   -0.47210804E-03 -0.26295537E-11
    6    1   -0.11082585E-03 -0.38017298E-11
    7    1   -0.11047988E-03  0.41547512E-11
    8    1    0.71781244E-05  0.50420974E-12
    9    1   -0.88878255E-04  0.20884288E-11
    1    2   -0.16155901E-02 -0.12710846E-10
    2    2    0.46589981E-02 -0.11494312E-10
    3    2    0.17605144E-03  0.16449099E-11
    4    2    0.25347393E-03 -0.65502707E-11
    5    2    0.37262248E-03  0.34538995E-11
    6    2    0.61897989E-04 -0.90723436E-12
    7    2    0.71702769E-04  0.15173016E-10
    8    2    0.19944725E-03  0.36654942E-11
    9    2   -0.48357529E-03  0.31854717E-11
    1    3   -0.17632599E-02 -0.53677887E-11
    2    3    0.17605144E-03  0.89702933E-11
    3    3    0.55176829E-03 -0.50891791E-11
    4    3    0.44238413E-02  0.16778889E-10
    5    3    0.25414783E-02  0.80651874E-11
    6    3   -0.93308188E-03 -0.16635556E-11
    7    3    0.11052545E-02 -0.12819428E-10
    8    3   -0.62812373E-03 -0.16210549E-10
    9    3   -0.17580110E-02  0.31914020E-11
    1    4   -0.24346382E-02  0.49856976E-11
    2    4    0.25347394E-03  0.16362186E-10
    3    4    0.44238413E-02 -0.47599537E-11
    4    4    0.38505694E-02  0.10513770E-10
    5    4    0.36272952E-02 -0.74487170E-11
    6    4    0.10925509E-02 -0.30147561E-12
    7    4   -0.11436512E-03 -0.43843384E-11
    8    4    0.15161957E-02  0.39605307E-11
    9    4   -0.16965625E-02 -0.60191305E-11
    1    5   -0.47210804E-03 -0.12033898E-11
    2    5   -0.37262248E-03 -0.10072562E-10
    3    5   -0.25414783E-02  0.10887242E-10
    4    5   -0.36272952E-02 -0.94104412E-12
    5    5    0.10985878E-02  0.16870498E-11
    6    5    0.38524307E-03  0.26860632E-12
    7    5    0.53738397E-03  0.36234258E-11
    8    5    0.49481523E-03  0.18477508E-11
    9    5   -0.13484132E-02  0.22192729E-12
    1    6   -0.11082585E-03  0.14166186E-12
    2    6   -0.61897984E-04  0.12118275E-11
    3    6    0.93308188E-03  0.10732032E-11
    4    6   -0.10925509E-02  0.37579014E-11
    5    6    0.38524306E-03  0.14304456E-11
    6    6    0.98225601E-03 -0.57210486E-12
    7    6    0.82048870E-03 -0.37843907E-11
    8    6   -0.48949296E-03 -0.43361365E-12
    9    6    0.53602117E-03  0.24337057E-11
    1    7   -0.11047987E-03 -0.10010807E-10
    2    7   -0.71702772E-04  0.16838035E-10
    3    7   -0.11052545E-02  0.19182610E-11
    4    7    0.11436512E-03  0.15315657E-11
    5    7    0.53738397E-03 -0.14176932E-11
    6    7    0.82048870E-03 -0.15721654E-11
    7    7    0.15645405E-02 -0.14158640E-11
    8    7   -0.11001778E-03 -0.11909678E-11
    9    7    0.93712794E-03  0.66509818E-12
    1    8    0.71781245E-05  0.26249742E-11
    2    8   -0.19944726E-03  0.43503268E-11
    3    8    0.62812374E-03 -0.18402259E-11
    4    8   -0.15161957E-02 -0.11891431E-10
    5    8    0.49481522E-03  0.81910791E-12
    6    8   -0.48949296E-03 -0.53355410E-12
    7    8   -0.11001778E-03 -0.29944470E-11
    8    8   -0.97473610E-03 -0.43789312E-11
    9    8   -0.20991365E-03 -0.35705672E-11
    1    9   -0.88878257E-04 -0.32400476E-11
    2    9    0.48357529E-03 -0.40606726E-11
    3    9    0.17580110E-02  0.37776501E-11
    4    9    0.16965625E-02 -0.10419483E-10
    5    9   -0.13484132E-02  0.39963497E-12
    6    9    0.53602117E-03  0.17097838E-12
    7    9    0.93712794E-03  0.23113054E-11
    8    9   -0.20991365E-03 -0.14257072E-11
    9    9   -0.46088627E-03  0.80169898E-12

   -3   -3    0
    1    1   -0.23628234E-02  0.46724855E-15
    2    1    0.18341062E-14  0.14190212E-11
    3    1    0.96348382E-11  0.13751517E-11
    4    1    0.50377733E-11  0.23169557E-11
    5    1    0.10767481E-02  0.33655884E-12
    6    1   -0.22006758E-08  0.91269583E-12
    7    1   -0.19208527E-08 -0.35458966E-12
    8    1    0.64329212E-03  0.19397405E-12
    9    1   -0.18823431E-02  0.47571380E-11
    1    2    0.18342256E-14 -0.14190212E-11
    2    2    0.44244994E-02  0.61532783E-15
    3    2   -0.30192018E-08  0.29233461E-11
    4    2    0.28384689E-08 -0.26259323E-12
    5    2    0.18872560E-11 -0.18088395E-11
    6    2    0.13532810E-11  0.78619871E-11
    7    2   -0.12873125E-11  0.68237152E-11
    8    2   -0.40221641E-11  0.34360196E-11
    9    2   -0.46454600E-11 -0.45489984E-11
    1    3    0.96288558E-11 -0.13751517E-11
    2    3   -0.30192018E-08 -0.29233461E-11
    3    3    0.66035121E-02  0.31121243E-15
    4    3    0.30957150E-02  0.13056659E-10
    5    3   -0.23288318E-11 -0.65447682E-11
    6    3    0.24522484E-11 -0.36351651E-12
    7    3   -0.22540457E-11  0.40783652E-11
    8    3    0.22077877E-11 -0.22566220E-11
    9    3   -0.63745558E-11 -0.14518733E-11
    1    4    0.50238517E-11 -0.23169557E-11
    2    4    0.28384689E-08  0.26259323E-12
    3    4    0.30957150E-02 -0.13056499E-10
    4    4    0.88190175E-02  0.47210618E-15
    5    4    0.65177546E-12 -0.96225111E-11
    6    4    0.15584489E-11  0.43661237E-11
    7    4   -0.12890275E-11  0.19679224E-12
    8    4    0.45063198E-12 -0.19560742E-11
    9    4    0.25386545E-11  0.23306444E-12
    1    5    0.10767481E-02 -0.33663134E-12
    2    5    0.18872560E-11  0.18088395E-11
    3    5   -0.22632276E-11  0.65447682E-11
    4    5    0.74611087E-12  0.96225111E-11
    5    5    0.27899670E-02  0.17196505E-15
    6    5    0.10464715E-08  0.48748307E-12
    7    5   -0.28145018E-09  0.94104673E-13
    8    5   -0.46359288E-03  0.13713040E-11
    9    5    0.12853010E-02  0.37757158E-12
    1    6   -0.22006758E-08 -0.91269583E-12
    2    6    0.13727350E-11 -0.78619871E-11
    3    6    0.24522485E-11  0.36351651E-12
    4    6    0.15584489E-11 -0.43661237E-11
    5    6    0.10464715E-08 -0.48748307E-12
    6    6   -0.13734812E-02  0.14045831E-15
    7    6    0.31857650E-03 -0.37641958E-11
    8    6    0.67669425E-09 -0.20808691E-12
    9    6   -0.10617507E-08 -0.21591540E-12
    1    7   -0.19208527E-08  0.35458966E-12
    2    7   -0.12594804E-11 -0.68237152E-11
    3    7   -0.22540458E-11 -0.40783652E-11
    4    7   -0.12890274E-11 -0.19679224E-12
    5    7   -0.28145018E-09 -0.94104673E-13
    6    7    0.31857650E-03  0.37642103E-11
    7    7   -0.11486322E-02  0.16278031E-15
    8    7    0.29999564E-09  0.39777193E-12
    9    7   -0.12028823E-08  0.22515201E-12
    1    8    0.64329212E-03 -0.19394805E-12
    2    8   -0.40221641E-11 -0.34360196E-11
    3    8    0.21930885E-11  0.22566220E-11
    4    8    0.40178024E-12  0.19560742E-11
    5    8   -0.46359288E-03 -0.13713151E-11
    6    8    0.67669425E-09  0.20808691E-12
    7    8    0.29999564E-09 -0.39777193E-12
    8    8   -0.70554329E-03  0.18426604E-15
    9    8   -0.63210017E-03 -0.50933463E-12
    1    9   -0.18823431E-02 -0.47572137E-11
    2    9   -0.46454599E-11  0.45489984E-11
    3    9   -0.62932563E-11  0.14518733E-11
    4    9    0.26482520E-11 -0.23306444E-12
    5    9    0.12853010E-02 -0.37753999E-12
    6    9   -0.10617507E-08  0.21591540E-12
    7    9   -0.12028823E-08 -0.22515201E-12
    8    9   -0.63210017E-03  0.50936730E-12
    9    9    0.97832932E-03  0.14833249E-15

   -3   -2   -3
    1    1    0.65512290E-03  0.15990681E-12
    2    1   -0.31088220E-03 -0.17881755E-11
    3    1   -0.44515482E-03 -0.14763728E-11
    4    1    0.22551158E-03  0.26024564E-11
    5    1   -0.12252047E-02  0.12611353E-11
    6    1   -0.92674195E-03  0.41681242E-12
    7    1   -0.20554676E-02  0.38422460E-11
    8    1    0.40284825E-03 -0.34114688E-11
    9    1   -0.89406975E-03  0.12062395E-11
    1    2    0.31088221E-03 -0.54361012E-11
    2    2   -0.18098210E-02 -0.17018761E-10
    3    2   -0.54703563E-02 -0.78184716E-11
    4    2    0.46818445E-02 -0.42586455E-11
    5    2   -0.33915327E-03  0.51338933E-11
    6    2   -0.40323131E-03  0.21743358E-11
    7    2   -0.55702770E-02  0.26246028E-11
    8    2    0.21952925E-02  0.16425770E-12
    9    2   -0.15132281E-02 -0.22275291E-11
    1    3    0.44515481E-03 -0.11715663E-11
    2    3   -0.54703563E-02 -0.60284885E-11
    3    3   -0.41454227E-03  0.32781278E-11
    4    3    0.30357010E-02 -0.12685354E-10
    5    3   -0.17583457E-02  0.44748250E-11
    6    3   -0.84177738E-03  0.86070907E-13
    7    3   -0.32704380E-02 -0.35326109E-11
    8    3    0.22762764E-02  0.77138400E-11
    9    3   -0.95512864E-03 -0.49315140E-11
    1    4   -0.22551158E-03 -0.46576631E-12
    2    4    0.46818444E-02 -0.80343440E-11
    3    4    0.30357010E-02 -0.16800780E-10
    4    4    0.38558719E-02 -0.10210846E-10
    5    4    0.15098107E-02  0.55646598E-11
    6    4    0.30052793E-02 -0.15755758E-11
    7    4    0.10426419E-02  0.66164036E-11
    8    4   -0.11755186E-03 -0.47281250E-11
    9    4   -0.40528589E-03  0.19845891E-11
    1    5   -0.12252047E-02  0.83787925E-12
    2    5    0.33915327E-03 -0.32892092E-11
    3    5    0.17583457E-02 -0.40093293E-11
    4    5   -0.15098107E-02 -0.24983800E-11
    5    5   -0.10297333E-02 -0.22095763E-11
    6    5   -0.93785540E-03  0.44711413E-12
    7    5   -0.10839320E-03  0.29783008E-11
    8    5   -0.49889350E-03  0.17336276E-11
    9    5   -0.35422165E-03  0.12064826E-11
    1    6   -0.92674194E-03  0.11311030E-11
    2    6    0.40323132E-03 -0.70703508E-11
    3    6    0.84177738E-03  0.30900621E-11
    4    6   -0.30052793E-02  0.10457708E-11
    5    6   -0.93785540E-03  0.12323332E-11
    6    6   -0.96780038E-03 -0.38570189E-12
    7    6   -0.63824760E-03 -0.80641006E-12
    8    6   -0.16522378E-03 -0.83571323E-12
    9    6   -0.27790337E-03 -0.11259980E-11
    1    7   -0.20554676E-02  0.67958937E-11
    2    7    0.55702770E-02 -0.24583348E-11
    3    7    0.32704380E-02 -0.58802124E-11
    4    7   -0.10426419E-02 -0.82364497E-12
    5    7   -0.10839320E-03  0.44229672E-11
    6    7   -0.63824760E-03 -0.31509713E-11
    7    7   -0.19452480E-02  0.10444284E-11
    8    7    0.14446879E-02 -0.25686277E-11
    9    7   -0.16080171E-04  0.28032908E-11
    1    8    0.40284825E-03 -0.29989993E-11
    2    8   -0.21952925E-02  0.51166983E-11
    3    8   -0.22762764E-02 -0.48266859E-11
    4    8    0.11755186E-03  0.11601406E-10
    5    8   -0.49889350E-03  0.13669324E-11
    6    8   -0.16522378E-03 -0.28804819E-11
    7    8    0.14446879E-02 -0.43302190E-11
    8    8   -0.16459393E-02  0.37620670E-11
    9    8   -0.20109559E-03 -0.18107217E-12
    1    9   -0.89406975E-03  0.16277505E-11
    2    9    0.15132281E-02 -0.39990082E-12
    3    9    0.95512864E-03  0.16255144E-11
    4    9    0.40528588E-03 -0.28781756E-11
    5    9   -0.35422165E-03  0.32465198E-12
    6    9   -0.27790337E-03  0.36129005E-13
    7    9   -0.16080168E-04  0.20119926E-11
    8    9   -0.20109559E-03 -0.11422996E-11
    9    9   -0.10912116E-03  0.28760640E-11

   -3   -2   -2
    1    1    0.74786148E-02  0.22463281E-12
    2    1   -0.61070951E-02  0.11152133E-10
    3    1   -0.18354682E-02  0.46153888E-11
    4    1   -0.35918156E-02  0.17662590E-11
    5    1    0.20573743E-02  0.46067837E-11
    6    1    0.41488862E-02 -0.53198687E-11
    7    1    0.35716958E-02  0.56425611E-12
    8    1    0.56434442E-03 -0.22701821E-11
    9    1    0.23847500E-02  0.78574777E-12
    1    2    0.61070951E-02 -0.84591553E-11
    2    2   -0.81257370E-02  0.44335854E-11
    3    2   -0.31021598E-02  0.12137819E-10
    4    2   -0.33449248E-02  0.71105170E-11
    5    2   -0.22895074E-03  0.92006359E-11
    6    2    0.50286156E-02 -0.32321576E-11
    7    2    0.94112459E-03  0.45108795E-11
    8    2    0.14416909E-02 -0.22954232E-11
    9    2    0.42867991E-03 -0.47550710E-11
    1    3    0.18354683E-02 -0.11522397E-10
    2    3   -0.31021598E-02  0.98058141E-11
    3    3   -0.24559481E-02  0.11368531E-10
    4    3   -0.17521852E-02  0.17366409E-10
    5    3    0.20154193E-02 -0.49201355E-12
    6    3    0.48070340E-02 -0.45466660E-11
    7    3    0.15118222E-02 -0.39366510E-11
    8    3   -0.17073352E-02 -0.17797951E-11
    9    3    0.26994455E-02  0.36421751E-11
    1    4    0.35918156E-02  0.31741033E-11
    2    4   -0.33449248E-02  0.73576700E-11
    3    4   -0.17521851E-02  0.84733167E-11
    4    4   -0.43293715E-02 -0.78026335E-11
    5    4   -0.19716034E-05  0.93662925E-11
    6    4    0.40441721E-03  0.66400688E-13
    7    4    0.49508572E-03  0.30780795E-11
    8    4    0.84286517E-03 -0.36107194E-11
    9    4    0.44863092E-02 -0.29858867E-11
    1    5    0.20573743E-02  0.34745167E-11
    2    5    0.22895074E-03 -0.69516571E-11
    3    5   -0.20154193E-02  0.66510339E-12
    4    5    0.19715991E-05 -0.88892210E-11
    5    5    0.90788490E-03  0.55821736E-11
    6    5    0.29286423E-02  0.14903287E-11
    7    5    0.44755035E-03  0.12309906E-11
    8    5    0.19016608E-02 -0.22313090E-11
    9    5   -0.38195897E-03 -0.31709123E-11
    1    6    0.41488862E-02 -0.24588430E-11
    2    6   -0.50286156E-02  0.11586166E-11
    3    6   -0.48070340E-02  0.79319017E-12
    4    6   -0.40441721E-03  0.63398719E-11
    5    6    0.29286423E-02  0.19736461E-11
    6    6    0.79272106E-03 -0.21719050E-11
    7    6    0.18403834E-02 -0.11671748E-11
    8    6   -0.48678888E-04  0.10576958E-11
    9    6    0.59320479E-03  0.15795234E-11
    1    7    0.35716958E-02 -0.65447127E-11
    2    7   -0.94112458E-03 -0.67889999E-11
    3    7   -0.15118221E-02  0.46558306E-11
    4    7   -0.49508573E-03 -0.21082207E-11
    5    7    0.44755035E-03  0.15276769E-11
    6    7    0.18403834E-02 -0.85547520E-12
    7    7    0.18823155E-02  0.17003760E-11
    8    7   -0.55568870E-03 -0.66091211E-11
    9    7    0.24533037E-02  0.19356693E-11
    1    8    0.56434443E-03  0.10441155E-11
    2    8   -0.14416909E-02  0.88685942E-11
    3    8    0.17073352E-02 -0.21297686E-11
    4    8   -0.84286519E-03  0.89725354E-11
    5    8    0.19016608E-02 -0.50398551E-11
    6    8   -0.48678888E-04 -0.41958863E-12
    7    8   -0.55568869E-03 -0.47506787E-11
    8    8   -0.21903536E-02 -0.20874760E-11
    9    8   -0.12565376E-02 -0.26189142E-11
    1    9    0.23847500E-02  0.37836457E-11
    2    9   -0.42867990E-03  0.11253070E-11
    3    9   -0.26994455E-02 -0.13982439E-11
    4    9   -0.44863092E-02 -0.76263908E-12
    5    9   -0.38195897E-03 -0.24144009E-11
    6    9    0.59320479E-03  0.12219397E-11
    7    9    0.24533037E-02  0.30557260E-11
    8    9   -0.12565376E-02  0.12707608E-12
    9    9    0.59240645E-04 -0.27217187E-11

   -3   -2   -1
    1    1    0.94434735E-03  0.16753942E-12
    2    1    0.10489455E-02 -0.74908517E-11
    3    1    0.55679314E-02 -0.27016410E-12
    4    1    0.67271862E-02  0.59600588E-11
    5    1   -0.19358008E-02  0.25479963E-12
    6    1    0.27393498E-02  0.13745218E-11
    7    1   -0.48709268E-03 -0.53479319E-11
    8    1   -0.50923718E-04 -0.43519571E-11
    9    1    0.34409935E-02  0.58767908E-11
    1    2   -0.10489455E-02  0.39603425E-11
    2    2    0.34422003E-02 -0.12455562E-11
    3    2    0.38746474E-02 -0.22285870E-11
    4    2    0.51590955E-02  0.36471453E-11
    5    2   -0.17527079E-02 -0.40749713E-11
    6    2    0.29371804E-04  0.81558389E-11
    7    2   -0.14272745E-02 -0.69336203E-12
    8    2   -0.27396638E-03  0.61812818E-11
    9    2    0.16444225E-02 -0.11069806E-10
    1    3   -0.55679314E-02  0.96118166E-11
    2    3    0.38746475E-02 -0.65459755E-11
    3    3    0.15313249E-01 -0.18822708E-11
    4    3    0.10257135E-01 -0.80992256E-11
    5    3   -0.12278452E-02  0.64187509E-11
    6    3    0.28216214E-02  0.89906901E-11
    7    3   -0.20162429E-02 -0.76096434E-11
    8    3   -0.21367480E-02 -0.11496186E-10
    9    3    0.26413530E-02  0.93641900E-11
    1    4   -0.67271862E-02 -0.40822415E-11
    2    4    0.51590955E-02  0.43958414E-11
    3    4    0.10257135E-01  0.31331016E-11
    4    4    0.88254033E-02  0.14290272E-10
    5    4   -0.70356588E-03 -0.11244339E-10
    6    4    0.23654152E-02  0.15216876E-11
    7    4   -0.25959112E-02 -0.54610778E-11
    8    4   -0.11750956E-03  0.50422323E-11
    9    4    0.49823235E-03  0.83004480E-11
    1    5   -0.19358008E-02 -0.14201636E-12
    2    5    0.17527079E-02  0.98746879E-12
    3    5    0.12278452E-02 -0.13632012E-11
    4    5    0.70356589E-03  0.38116038E-11
    5    5    0.26195007E-02 -0.20136050E-11
    6    5   -0.13979746E-02 -0.81748308E-13
    7    5    0.19103318E-03  0.14592968E-11
    8    5   -0.16877415E-02  0.38111272E-11
    9    5    0.31722577E-02  0.71792311E-12
    1    6    0.27393498E-02 -0.40384374E-12
    2    6   -0.29371806E-04 -0.22309776E-11
    3    6   -0.28216214E-02 -0.48362321E-11
    4    6   -0.23654152E-02  0.43702838E-11
    5    6   -0.13979746E-02 -0.19201237E-11
    6    6    0.19064514E-02  0.23338417E-11
    7    6    0.86187600E-03 -0.60891875E-12
    8    6   -0.11421859E-04  0.71476800E-12
    9    6    0.25245361E-02  0.13817509E-11
    1    7   -0.48709268E-03 -0.26956655E-11
    2    7    0.14272745E-02 -0.34935006E-11
    3    7    0.20162429E-02  0.16244024E-11
    4    7    0.25959112E-02  0.27130225E-11
    5    7    0.19103319E-03 -0.48753256E-12
    6    7    0.86187600E-03 -0.96087059E-12
    7    7    0.34919262E-03 -0.16245604E-11
    8    7   -0.38255938E-03 -0.24931735E-13
    9    7   -0.61765235E-03 -0.12261850E-11
    1    8   -0.50923722E-04  0.63872535E-11
    2    8    0.27396639E-03 -0.21079850E-10
    3    8    0.21367480E-02  0.41071070E-11
    4    8    0.11750955E-03 -0.27665490E-10
    5    8   -0.16877415E-02  0.45755117E-11
    6    8   -0.11421859E-04  0.13038497E-11
    7    8   -0.38255938E-03  0.32078969E-11
    8    8    0.65993234E-03  0.16789827E-11
    9    8    0.17956923E-02  0.23834464E-11
    1    9    0.34409935E-02  0.10256479E-10
    2    9   -0.16444225E-02  0.15345304E-11
    3    9   -0.26413530E-02 -0.17248066E-10
    4    9   -0.49823235E-03  0.48681033E-11
    5    9    0.31722577E-02 -0.30303720E-12
    6    9    0.25245361E-02  0.22857713E-11
    7    9   -0.61765234E-03 -0.14234846E-11
    8    9    0.17956923E-02  0.49863856E-11
    9    9   -0.39641533E-03 -0.39413160E-11

   -3   -2    0
    1    1   -0.10718662E-02 -0.23478997E-11
    2    1    0.16595373E-08  0.34626468E-12
    3    1    0.28654215E-02 -0.63010699E-11
    4    1    0.14128157E-02  0.57120628E-11
    5    1    0.36248049E-03  0.28448138E-11
    6    1   -0.14512534E-09  0.38320805E-11
    7    1    0.11606308E-08  0.17862933E-11
    8    1   -0.23906342E-03 -0.55448268E-12
    9    1    0.31260644E-03 -0.28367699E-11
    1    2   -0.16536024E-08  0.48913998E-11
    2    2   -0.26861987E-02  0.10200021E-10
    3    2    0.13398935E-08  0.78543352E-11
    4    2   -0.51749600E-08  0.35807815E-12
    5    2   -0.19623147E-09  0.14847758E-12
    6    2   -0.22526757E-02  0.14879287E-11
    7    2   -0.21602153E-03 -0.14360794E-10
    8    2   -0.10557006E-08  0.23461759E-11
    9    2   -0.35217438E-08 -0.11847393E-11
    1    3   -0.28654215E-02 -0.15636670E-10
    2    3    0.13459167E-08 -0.64774037E-11
    3    3    0.56695023E-02  0.14169360E-11
    4    3    0.10666372E-02 -0.23783252E-10
    5    3    0.25045008E-03  0.62138836E-12
    6    3   -0.27381452E-09  0.82538750E-12
    7    3    0.23510461E-08  0.14331335E-11
    8    3    0.15430787E-02  0.88727289E-11
    9    3   -0.29773157E-02  0.17886096E-11
    1    4   -0.14128157E-02  0.13718280E-11
    2    4   -0.51862152E-08  0.48134031E-11
    3    4    0.10666372E-02  0.13441548E-10
    4    4    0.58608577E-02 -0.64129951E-11
    5    4   -0.18548311E-03  0.47144771E-11
    6    4   -0.60790036E-09  0.58658114E-11
    7    4    0.77928749E-09 -0.99570872E-12
    8    4    0.17040769E-02 -0.35782818E-11
    9    4   -0.35236010E-02  0.61459210E-11
    1    5    0.36248049E-03  0.28970853E-11
    2    5    0.19651455E-09  0.54030816E-11
    3    5   -0.25045008E-03 -0.12058731E-10
    4    5    0.18548310E-03  0.79640756E-11
    5    5   -0.12625751E-02 -0.27789056E-11
    6    5    0.28635922E-10  0.11420617E-11
    7    5   -0.10794368E-08 -0.38674662E-12
    8    5   -0.11936364E-02  0.12650687E-11
    9    5   -0.49567478E-03 -0.76876645E-12
    1    6   -0.14548019E-09  0.16835231E-11
    2    6    0.22526757E-02 -0.25677915E-11
    3    6    0.27331918E-09  0.31750991E-12
    4    6    0.60286877E-09 -0.86742961E-11
    5    6    0.30466097E-10  0.61813835E-13
    6    6   -0.42021925E-03  0.19148537E-11
    7    6   -0.82093549E-03  0.47614954E-11
    8    6   -0.79775666E-09  0.14073061E-11
    9    6    0.81675423E-09 -0.21896486E-11
    1    7    0.11619538E-08  0.36372867E-11
    2    7    0.21602153E-03 -0.24459720E-10
    3    7   -0.23400165E-08 -0.56901004E-11
    4    7   -0.78055560E-09  0.26118500E-11
    5    7   -0.10784467E-08  0.11796913E-11
    6    7   -0.82093549E-03  0.26190557E-12
    7    7   -0.24698814E-03  0.22508211E-11
    8    7   -0.63284873E-10 -0.26752184E-12
    9    7    0.12813829E-08 -0.16676517E-11
    1    8   -0.23906342E-03 -0.72782405E-12
    2    8    0.10647845E-08 -0.44332002E-11
    3    8   -0.15430787E-02 -0.21050592E-11
    4    8   -0.17040769E-02  0.18043677E-10
    5    8   -0.11936364E-02 -0.74725491E-13
    6    8   -0.79785894E-09  0.17299239E-11
    7    8   -0.62943686E-10  0.24038427E-11
    8    8    0.21687482E-02  0.29264473E-11
    9    8    0.41318611E-04  0.35762018E-11
    1    9    0.31260645E-03  0.26237237E-11
    2    9    0.35352995E-08 -0.48558740E-12
    3    9    0.29773157E-02  0.11153843E-11
    4    9    0.35236010E-02  0.74045947E-11
    5    9   -0.49567478E-03  0.37786733E-12
    6    9    0.81547983E-09  0.87193601E-12
    7    9    0.12820058E-08 -0.19590011E-11
    8    9    0.41318610E-04 -0.20694535E-12
    9    9    0.19857439E-02  0.21071651E-11

   -3   -1   -4
    1    1   -0.26688279E-02  0.35589587E-12
    2    1    0.29928506E-03  0.60030834E-11
    3    1   -0.31499023E-03  0.13439467E-11
    4    1    0.27301538E-03 -0.10574753E-11
    5    1   -0.42704444E-03 -0.74891222E-12
    6    1   -0.14938816E-02  0.34046663E-11
    7    1    0.10875832E-02  0.39182702E-11
    8    1   -0.23445037E-03 -0.17725483E-11
    9    1    0.66589376E-03  0.19213030E-11
    1    2   -0.29928505E-03 -0.45718533E-11
    2    2    0.27718140E-03  0.39077630E-11
    3    2    0.63128716E-03  0.12069396E-10
    4    2   -0.48663090E-03 -0.48959309E-11
    5    2    0.20465643E-02  0.56185091E-12
    6    2   -0.82540571E-03  0.50426200E-12
    7    2    0.57817879E-03 -0.14101342E-11
    8    2   -0.11498613E-03  0.25625167E-12
    9    2    0.29732682E-03 -0.94734320E-12
    1    3    0.31499023E-03  0.69121523E-11
    2    3    0.63128715E-03  0.31663804E-11
    3    3   -0.22827189E-02  0.15575458E-11
    4    3   -0.37692248E-02 -0.59620954E-11
    5    3    0.10993683E-02  0.13011797E-11
    6    3    0.10224899E-02 -0.86141068E-11
    7    3   -0.11343107E-03  0.95577428E-12
    8    3   -0.88073892E-03  0.32268181E-11
    9    3    0.10672567E-02  0.25190492E-11
    1    4   -0.27301538E-03  0.23845387E-11
    2    4   -0.48663090E-03 -0.98368189E-12
    3    4   -0.37692248E-02 -0.41470672E-11
    4    4   -0.51412983E-02  0.32633202E-11
    5    4   -0.78329083E-03 -0.22307572E-11
    6    4   -0.12272661E-03  0.91580714E-13
    7    4    0.95378129E-03  0.20207811E-11
    8    4   -0.34147189E-03 -0.54383538E-11
    9    4   -0.11004517E-02 -0.42841290E-11
    1    5   -0.42704444E-03 -0.66036499E-12
    2    5   -0.20465643E-02 -0.84066434E-12
    3    5   -0.10993683E-02 -0.25434715E-11
    4    5    0.78329083E-03  0.76875832E-12
    5    5    0.39405780E-03 -0.50512025E-12
    6    5    0.28162768E-03  0.20191791E-11
    7    5   -0.20625242E-03  0.11195970E-11
    8    5    0.37418191E-04  0.64345176E-12
    9    5   -0.96306794E-04 -0.29748697E-12
    1    6   -0.14938816E-02  0.81220447E-12
    2    6    0.82540572E-03  0.66885429E-12
    3    6   -0.10224899E-02 -0.31486454E-11
    4    6    0.12272661E-03 -0.51593817E-11
    5    6    0.28162768E-03  0.48299992E-12
    6    6    0.79533887E-03  0.43838544E-12
    7    6   -0.12025034E-02 -0.31330696E-11
    8    6    0.59494456E-03 -0.61367252E-12
    9    6   -0.31536410E-03 -0.43194376E-12
    1    7    0.10875832E-02 -0.13269386E-11
    2    7   -0.57817880E-03 -0.95796981E-12
    3    7    0.11343106E-03  0.51037012E-11
    4    7   -0.95378129E-03 -0.55064113E-12
    5    7   -0.20625242E-03  0.12609627E-11
    6    7   -0.12025034E-02  0.63545919E-12
    7    7   -0.54763653E-04  0.40014173E-12
    8    7    0.48658219E-03 -0.39908181E-12
    9    7    0.54356301E-03  0.98452409E-12
    1    8   -0.23445037E-03 -0.63676148E-12
    2    8    0.11498613E-03 -0.19002224E-11
    3    8    0.88073892E-03  0.27831019E-11
    4    8    0.34147190E-03  0.32313917E-11
    5    8    0.37418190E-04  0.66992527E-13
    6    8    0.59494456E-03 -0.17911480E-11
    7    8    0.48658219E-03 -0.33480419E-11
    8    8   -0.74423537E-03  0.10954293E-11
    9    8   -0.44948036E-03 -0.56406876E-12
    1    9    0.66589375E-03 -0.48121676E-11
    2    9   -0.29732682E-03 -0.21251591E-11
    3    9   -0.10672567E-02 -0.55313636E-11
    4    9    0.11004517E-02  0.24263573E-11
    5    9   -0.96306794E-04 -0.42560280E-12
    6    9   -0.31536410E-03 -0.43470853E-12
    7    9    0.54356301E-03 -0.92843463E-12
    8    9   -0.44948036E-03 -0.10128465E-11
    9    9    0.34202814E-03 -0.46991924E-12

   -3   -1   -3
    1    1   -0.11951912E-02  0.86130408E-12
    2    1    0.27810812E-02  0.11053946E-10
    3    1    0.17191137E-02 -0.34728340E-11
    4    1    0.16190410E-03  0.24649605E-11
    5    1   -0.59681690E-04 -0.95065882E-12
    6    1   -0.13954105E-03 -0.37324865E-11
    7    1   -0.43074649E-03 -0.10042037E-11
    8    1    0.22892980E-03 -0.58715597E-12
    9    1   -0.21962075E-04  0.39986374E-12
    1    2   -0.27810811E-02 -0.57844701E-12
    2    2    0.42152795E-02  0.80648196E-11
    3    2    0.38641393E-02 -0.52553586E-11
    4    2    0.67091512E-03 -0.11327488E-10
    5    2   -0.14096316E-02 -0.56212162E-11
    6    2   -0.96299197E-03 -0.36398167E-11
    7    2    0.30149291E-02 -0.23550511E-11
    8    2   -0.13024195E-02  0.29148662E-12
    9    2    0.17282983E-02 -0.25399550E-12
    1    3   -0.17191137E-02 -0.12861714E-10
    2    3    0.38641393E-02 -0.57868953E-11
    3    3    0.61926083E-03  0.78039797E-11
    4    3   -0.20905127E-02  0.58980329E-11
    5    3    0.87092517E-03  0.10271511E-10
    6    3   -0.20098090E-02 -0.14593665E-11
    7    3    0.22165251E-02 -0.10365931E-10
    8    3   -0.16086206E-02 -0.14462535E-10
    9    3    0.94534021E-04 -0.36094920E-11
    1    4   -0.16190410E-03  0.21493328E-11
    2    4    0.67091513E-03  0.77018079E-11
    3    4   -0.20905127E-02  0.11775625E-10
    4    4    0.41610669E-02 -0.60824540E-11
    5    4    0.66482013E-03  0.28118775E-11
    6    4    0.11680370E-03  0.85935818E-12
    7    4   -0.12607435E-02  0.70855474E-12
    8    4    0.65549009E-03 -0.58111181E-11
    9    4   -0.60926938E-03  0.21919862E-11
    1    5   -0.59681687E-04  0.75216916E-12
    2    5    0.14096316E-02  0.10475963E-10
    3    5   -0.87092517E-03 -0.36027075E-11
    4    5   -0.66482013E-03 -0.20665154E-11
    5    5    0.57452135E-03 -0.16309350E-11
    6    5    0.13016630E-02 -0.69029374E-12
    7    5    0.75893971E-03  0.34723739E-11
    8    5    0.85053092E-03 -0.12504662E-11
    9    5    0.27813641E-03 -0.11086741E-11
    1    6   -0.13954105E-03 -0.19743087E-11
    2    6    0.96299197E-03  0.58604762E-11
    3    6    0.20098090E-02  0.10238425E-12
    4    6   -0.11680370E-03  0.11274628E-11
    5    6    0.13016630E-02 -0.41773226E-12
    6    6    0.34957898E-03  0.59393115E-12
    7    6   -0.30963870E-03  0.39419737E-12
    8    6    0.89903117E-03 -0.19702989E-13
    9    6    0.89163785E-03  0.27920838E-12
    1    7   -0.43074649E-03 -0.28370197E-11
    2    7   -0.30149291E-02 -0.14180484E-10
    3    7   -0.22165251E-02  0.42581679E-11
    4    7    0.12607435E-02  0.73046864E-12
    5    7    0.75893970E-03  0.31057214E-11
    6    7   -0.30963870E-03  0.24694086E-11
    7    7    0.14822903E-02  0.27618498E-11
    8    7   -0.42593408E-03 -0.21405902E-11
    9    7    0.73786417E-03 -0.65339726E-12
    1    8    0.22892979E-03  0.18976645E-11
    2    8    0.13024194E-02 -0.83468953E-11
    3    8    0.16086206E-02 -0.13373309E-10
    4    8   -0.65549009E-03  0.10166461E-10
    5    8    0.85053092E-03 -0.16067684E-11
    6    8    0.89903117E-03 -0.10116604E-11
    7    8   -0.42593408E-03 -0.23739214E-12
    8    8   -0.37824720E-03 -0.34918284E-11
    9    8   -0.74775894E-03 -0.22530140E-11
    1    9   -0.21962071E-04 -0.19172663E-11
    2    9   -0.17282983E-02  0.87798514E-11
    3    9   -0.94534027E-04  0.15148386E-11
    4    9    0.60926938E-03 -0.65604180E-11
    5    9    0.27813641E-03 -0.29341531E-11
    6    9    0.89163785E-03  0.12624473E-11
    7    9    0.73786417E-03  0.12386043E-11
    8    9   -0.74775894E-03 -0.12254826E-11
    9    9    0.16842516E-03 -0.24683970E-11

   -3   -1   -2
    1    1    0.98160441E-03  0.46397081E-11
    2    1    0.61201763E-02 -0.41575389E-11
    3    1    0.56268940E-02 -0.70521245E-11
    4    1   -0.24914001E-02 -0.76495754E-12
    5    1   -0.59928934E-04 -0.43389151E-11
    6    1    0.43577336E-02  0.62758280E-11
    7    1   -0.17593028E-02 -0.38758895E-11
    8    1    0.99991513E-03  0.37761511E-11
    9    1    0.55342799E-03 -0.28166247E-11
    1    2   -0.61201763E-02  0.11395312E-10
    2    2    0.11844255E-01  0.83126776E-11
    3    2    0.10825820E-01 -0.69893372E-11
    4    2    0.37814707E-03 -0.11623829E-10
    5    2   -0.18594956E-02 -0.11223416E-10
    6    2    0.21078943E-02 -0.20539802E-11
    7    2   -0.26290117E-02 -0.14763538E-12
    8    2   -0.48250208E-03  0.83369988E-11
    9    2    0.11289895E-02 -0.77374223E-11
    1    3   -0.56268940E-02  0.40569995E-11
    2    3    0.10825820E-01 -0.10955069E-10
    3    3    0.15491931E-01 -0.97205063E-12
    4    3   -0.17467406E-02  0.95971498E-11
    5    3   -0.64490408E-04 -0.12251063E-10
    6    3    0.36498946E-02  0.10149465E-10
    7    3   -0.28358137E-02 -0.19864856E-11
    8    3   -0.14407994E-02 -0.25314438E-11
    9    3    0.11465437E-02  0.54905039E-12
    1    4    0.24914001E-02  0.29156053E-11
    2    4    0.37814707E-03 -0.72164968E-11
    3    4   -0.17467406E-02  0.18849592E-11
    4    4    0.22879579E-03 -0.30933959E-11
    5    4    0.32273959E-03  0.58077813E-11
    6    4    0.62452746E-03 -0.17870048E-12
    7    4   -0.10018267E-02 -0.25893350E-12
    8    4    0.70368524E-03  0.36223247E-11
    9    4   -0.16834415E-02  0.59342435E-11
    1    5   -0.59928937E-04 -0.87171830E-12
    2    5    0.18594956E-02  0.56078857E-11
    3    5    0.64490410E-04  0.94067844E-11
    4    5   -0.32273959E-03 -0.11270276E-10
    5    5    0.58722483E-03  0.44738812E-11
    6    5   -0.13161936E-02  0.10414125E-11
    7    5    0.68851843E-03 -0.17343388E-11
    8    5   -0.70612137E-03 -0.25568610E-11
    9    5    0.17201660E-02 -0.13594005E-11
    1    6    0.43577336E-02  0.20131455E-11
    2    6   -0.21078943E-02 -0.34445016E-12
    3    6   -0.36498946E-02 -0.20461216E-10
    4    6   -0.62452747E-03  0.25280573E-11
    5    6   -0.13161936E-02 -0.13431512E-11
    6    6    0.23420386E-02 -0.67258865E-12
    7    6    0.21414225E-02  0.42671095E-11
    8    6   -0.40085286E-03  0.10207008E-12
    9    6    0.22601231E-02  0.51685235E-12
    1    7   -0.17593028E-02 -0.60645424E-11
    2    7    0.26290117E-02  0.50387351E-11
    3    7    0.28358137E-02  0.11196248E-10
    4    7    0.10018267E-02 -0.37417638E-12
    5    7    0.68851842E-03 -0.44788348E-11
    6    7    0.21414225E-02  0.22127231E-11
    7    7    0.55647297E-03 -0.12399044E-11
    8    7   -0.15347347E-02  0.24774698E-11
    9    7   -0.19802227E-02 -0.34334066E-11
    1    8    0.99991513E-03  0.30853408E-11
    2    8    0.48250207E-03 -0.80575819E-11
    3    8    0.14407994E-02  0.20068322E-12
    4    8   -0.70368525E-03 -0.13896497E-10
    5    8   -0.70612137E-03 -0.40675824E-11
    6    8   -0.40085286E-03  0.59246247E-12
    7    8   -0.15347347E-02  0.44542584E-11
    8    8    0.24860436E-02  0.88326678E-13
    9    8    0.17238644E-02  0.45132698E-12
    1    9    0.55342799E-03  0.48175121E-11
    2    9   -0.11289895E-02  0.78616151E-11
    3    9   -0.11465437E-02 -0.36890387E-11
    4    9    0.16834415E-02 -0.76458952E-11
    5    9    0.17201660E-02  0.39958081E-12
    6    9    0.22601231E-02  0.83379765E-12
    7    9   -0.19802227E-02 -0.22516510E-11
    8    9    0.17238644E-02  0.18035414E-11
    9    9   -0.85451836E-03 -0.23656960E-11

   -3   -1   -1
    1    1    0.86970114E-02  0.75418144E-11
    2    1   -0.36400223E-04 -0.60081592E-11
    3    1   -0.81117182E-02 -0.72662631E-11
    4    1   -0.11042065E-03  0.19961324E-11
    5    1   -0.28795907E-02  0.38347121E-11
    6    1    0.21263263E-02  0.47224585E-11
    7    1    0.33404467E-03 -0.19922848E-11
    8    1    0.54168214E-02  0.22536027E-11
    9    1    0.12590780E-02 -0.19788511E-11
    1    2    0.36400221E-04  0.55175378E-11
    2    2   -0.14985818E-02  0.14667309E-10
    3    2   -0.12447995E-02 -0.58912025E-11
    4    2    0.52146493E-03 -0.66268449E-11
    5    2   -0.12448500E-02 -0.23405626E-11
    6    2    0.91749671E-03  0.37228380E-11
    7    2   -0.30018986E-02 -0.23176183E-11
    8    2    0.34520604E-02  0.46998992E-11
    9    2   -0.25075726E-03  0.45307277E-11
    1    3    0.81117182E-02  0.14514993E-10
    2    3   -0.12447995E-02  0.32602202E-11
    3    3   -0.12299425E-01 -0.42779960E-10
    4    3   -0.91295380E-03 -0.10324503E-10
    5    3   -0.25164368E-02  0.92261017E-11
    6    3    0.45552655E-02 -0.54205182E-11
    7    3   -0.51276206E-03  0.42818101E-11
    8    3    0.38421445E-02  0.28075684E-11
    9    3    0.26243006E-02  0.25800239E-12
    1    4    0.11042064E-03 -0.10295017E-10
    2    4    0.52146493E-03  0.78919371E-11
    3    4   -0.91295379E-03  0.86172788E-11
    4    4   -0.21789405E-02  0.97195585E-11
    5    4   -0.42749096E-02 -0.44518382E-11
    6    4   -0.25802929E-03  0.39023881E-11
    7    4    0.58375263E-03 -0.28754108E-11
    8    4    0.52491188E-04 -0.71584795E-11
    9    4    0.11342108E-02  0.48797776E-11
    1    5   -0.28795907E-02  0.19916915E-11
    2    5    0.12448500E-02  0.63672184E-11
    3    5    0.25164368E-02 -0.46206702E-11
    4    5    0.42749096E-02  0.85884546E-11
    5    5   -0.29710088E-03 -0.35372191E-11
    6    5   -0.55533407E-03 -0.26138076E-12
    7    5   -0.36770109E-03  0.71919337E-12
    8    5   -0.26829318E-02  0.32792515E-11
    9    5   -0.13783904E-02  0.26503397E-11
    1    6    0.21263263E-02  0.71868518E-11
    2    6   -0.91749671E-03  0.67021302E-12
    3    6   -0.45552655E-02  0.14352755E-12
    4    6    0.25802928E-03 -0.60329497E-11
    5    6   -0.55533407E-03 -0.12086768E-11
    6    6   -0.13456654E-02  0.46127269E-11
    7    6   -0.10256101E-02  0.19091009E-11
    8    6    0.12144260E-02 -0.14380268E-11
    9    6   -0.25595770E-02 -0.24508848E-11
    1    7    0.33404467E-03  0.28046541E-11
    2    7    0.30018986E-02  0.14991047E-11
    3    7    0.51276206E-03 -0.83912777E-11
    4    7   -0.58375263E-03 -0.67518673E-11
    5    7   -0.36770108E-03  0.33537843E-12
    6    7   -0.10256101E-02  0.19915658E-11
    7    7   -0.19526704E-02 -0.11534176E-11
    8    7    0.21334181E-03  0.20252501E-11
    9    7    0.11227867E-03 -0.24515546E-13
    1    8    0.54168214E-02 -0.50479473E-11
    2    8   -0.34520604E-02  0.23286341E-11
    3    8   -0.38421445E-02 -0.24258720E-12
    4    8   -0.52491179E-04 -0.18784887E-11
    5    8   -0.26829318E-02  0.64122029E-11
    6    8    0.12144260E-02 -0.32168864E-12
    7    8    0.21334181E-03  0.78796821E-12
    8    8    0.33439696E-02  0.17912408E-11
    9    8    0.83535468E-04  0.30846879E-11
    1    9    0.12590780E-02 -0.12612164E-11
    2    9    0.25075727E-03  0.36717266E-11
    3    9   -0.26243006E-02  0.23263305E-11
    4    9   -0.11342108E-02 -0.18805812E-11
    5    9   -0.13783904E-02  0.22943488E-11
    6    9   -0.25595770E-02 -0.23745517E-11
    7    9    0.11227867E-03 -0.51785464E-12
    8    9    0.83535465E-04 -0.12389525E-12
    9    9    0.15508510E-02  0.51272597E-11

   -3   -1    0
    1    1    0.66677804E-03  0.12748899E-11
    2    1    0.56645236E-08 -0.19026343E-11
    3    1   -0.19337301E-03  0.85027766E-11
    4    1   -0.30591951E-03  0.30616221E-11
    5    1    0.11858020E-02 -0.18980989E-11
    6    1    0.73106091E-09  0.26800177E-12
    7    1    0.93398718E-10 -0.58120782E-12
    8    1   -0.24379018E-02  0.16975746E-11
    9    1    0.38966712E-03 -0.18039372E-11
    1    2   -0.56666028E-08  0.49896927E-11
    2    2    0.40381400E-02  0.51944213E-11
    3    2    0.51805692E-08  0.12106793E-10
    4    2   -0.57843438E-08 -0.39347935E-11
    5    2    0.46635296E-08  0.10533267E-11
    6    2    0.79901759E-03 -0.64525655E-11
    7    2    0.88284648E-03 -0.80034070E-12
    8    2   -0.17501786E-08  0.11781968E-11
    9    2    0.49159821E-08  0.61865844E-11
    1    3    0.19337300E-03 -0.14421705E-10
    2    3    0.51805329E-08  0.12483322E-10
    3    3    0.14363203E-02  0.43767628E-11
    4    3   -0.68824436E-02  0.19869900E-10
    5    3    0.11102167E-02  0.25550621E-11
    6    3    0.66467070E-09  0.21346354E-11
    7    3   -0.13789599E-08 -0.20506707E-11
    8    3   -0.34869875E-02 -0.36648583E-11
    9    3    0.46123760E-02 -0.78996549E-11
    1    4    0.30591951E-03 -0.52641502E-11
    2    4   -0.57978404E-08  0.31162885E-11
    3    4   -0.68824436E-02  0.16134104E-10
    4    4   -0.39819543E-02 -0.78500123E-11
    5    4    0.40671098E-02  0.51201248E-11
    6    4    0.12041393E-08 -0.58811422E-11
    7    4    0.15810141E-08 -0.18895588E-11
    8    4   -0.41088330E-02 -0.10518213E-10
    9    4    0.95731515E-03 -0.10296430E-11
    1    5    0.11858020E-02  0.19464673E-11
    2    5   -0.46678651E-08  0.37451839E-11
    3    5   -0.11102167E-02 -0.12721673E-11
    4    5   -0.40671098E-02 -0.69100385E-11
    5    5   -0.14679847E-02 -0.75342510E-13
    6    5   -0.53081528E-09  0.34742608E-13
    7    5    0.35063302E-09 -0.47286047E-12
    8    5    0.11728847E-02 -0.36051735E-11
    9    5   -0.10067456E-02 -0.48805480E-12
    1    6    0.73124620E-09 -0.34026861E-11
    2    6   -0.79901759E-03  0.23544634E-11
    3    6   -0.66350578E-09  0.19536170E-11
    4    6   -0.12012219E-08 -0.70745043E-12
    5    6   -0.53075820E-09  0.26029122E-11
    6    6    0.96984033E-05 -0.18191941E-11
    7    6   -0.42503909E-04 -0.27428634E-12
    8    6    0.62297774E-09  0.11343571E-11
    9    6    0.56660833E-09  0.97476617E-12
    1    7    0.90870586E-10  0.36620542E-11
    2    7   -0.88284648E-03  0.75221964E-11
    3    7    0.13825932E-08  0.65856997E-11
    4    7   -0.15789909E-08  0.29800511E-11
    5    7    0.34935353E-09 -0.49566514E-12
    6    7   -0.42503910E-04  0.90253109E-13
    7    7   -0.80173944E-04 -0.11664628E-12
    8    7   -0.51397398E-09  0.97784877E-12
    9    7    0.23411999E-09  0.34719992E-12
    1    8   -0.24379018E-02 -0.16511250E-12
    2    8    0.17434372E-08  0.58308306E-11
    3    8    0.34869875E-02  0.44386925E-11
    4    8    0.41088330E-02  0.19288650E-10
    5    8    0.11728847E-02 -0.42559894E-11
    6    8    0.62127635E-09  0.25063174E-11
    7    8   -0.51500276E-09 -0.17925869E-11
    8    8   -0.14858957E-02 -0.16251653E-11
    9    8   -0.25046962E-03 -0.35706644E-11
    1    9    0.38966713E-03 -0.43762259E-11
    2    9   -0.49152784E-08  0.26599254E-11
    3    9   -0.46123760E-02  0.13382880E-10
    4    9   -0.95731516E-03 -0.25623674E-11
    5    9   -0.10067456E-02 -0.12656346E-11
    6    9    0.56457813E-09 -0.90849989E-13
    7    9    0.23358434E-09  0.16180082E-11
    8    9   -0.25046962E-03 -0.35775265E-11
    9    9   -0.25461344E-02 -0.10234869E-14

   -3   -1    1
    1    1   -0.11697925E-02  0.11112960E-11
    2    1   -0.68904379E-03 -0.61403833E-11
    3    1    0.33044838E-04 -0.54649167E-12
    4    1    0.12656710E-02  0.27769557E-11
    5    1    0.79615982E-03 -0.23242476E-11
    6    1    0.84476959E-04  0.20987290E-11
    7    1   -0.16869669E-04  0.12171391E-11
    8    1   -0.14302268E-02  0.71028016E-12
    9    1    0.34422846E-04  0.12848046E-11
    1    2    0.68904379E-03 -0.54498454E-11
    2    2    0.11751999E-02 -0.32754951E-11
    3    2   -0.38326304E-03 -0.59921430E-11
    4    2   -0.63922182E-03 -0.31838390E-11
    5    2    0.17865575E-04 -0.17369908E-11
    6    2    0.11212560E-02 -0.11650785E-11
    7    2   -0.71408181E-03  0.53482895E-11
    8    2    0.75537993E-03  0.25204817E-11
    9    2   -0.44242468E-03 -0.59502181E-12
    1    3   -0.33044842E-04  0.40022829E-11
    2    3   -0.38326304E-03  0.17822440E-11
    3    3   -0.39289905E-02 -0.45652381E-11
    4    3   -0.29794098E-03  0.81680196E-11
    5    3    0.79848764E-03 -0.24162356E-11
    6    3   -0.34769373E-03  0.17219420E-11
    7    3   -0.53691242E-03  0.88554572E-11
    8    3    0.46221075E-03  0.27510216E-11
    9    3    0.65013749E-03 -0.25890488E-11
    1    4   -0.12656710E-02 -0.35354809E-11
    2    4   -0.63922182E-03  0.50873296E-11
    3    4   -0.29794097E-03 -0.85287577E-11
    4    4    0.18423369E-02  0.74777845E-11
    5    4    0.11113555E-02 -0.97860955E-12
    6    4   -0.87908596E-03  0.94573058E-12
    7    4    0.39804248E-03 -0.48202241E-12
    8    4   -0.59220357E-03 -0.28915498E-11
    9    4   -0.11083189E-02 -0.11002570E-10
    1    5    0.79615982E-03 -0.96523212E-12
    2    5   -0.17865576E-04 -0.19358404E-11
    3    5   -0.79848764E-03  0.81838182E-12
    4    5   -0.11113555E-02 -0.35785715E-11
    5    5    0.27206462E-03  0.13981401E-11
    6    5   -0.39239912E-03 -0.27604854E-11
    7    5   -0.41221455E-03 -0.10204059E-11
    8    5    0.10775191E-02  0.90401236E-12
    9    5    0.45398333E-03  0.67295241E-12
    1    6    0.84476963E-04  0.18030883E-11
    2    6   -0.11212560E-02  0.97475326E-12
    3    6    0.34769372E-03 -0.17461865E-11
    4    6    0.87908596E-03  0.60842107E-11
    5    6   -0.39239912E-03 -0.26453453E-11
    6    6   -0.55336982E-03 -0.11005218E-11
    7    6    0.42175849E-03 -0.33256463E-12
    8    6    0.24640344E-03 -0.43666906E-12
    9    6   -0.53183410E-03 -0.11701924E-12
    1    7   -0.16869675E-04 -0.74199507E-12
    2    7    0.71408182E-03  0.58587423E-11
    3    7    0.53691242E-03 -0.42519126E-11
    4    7   -0.39804248E-03 -0.20568113E-11
    5    7   -0.41221455E-03 -0.22184536E-11
    6    7    0.42175850E-03 -0.21004310E-11
    7    7    0.44487405E-03 -0.39920257E-12
    8    7   -0.12343694E-03  0.18003617E-11
    9    7   -0.21568844E-03  0.25220553E-11
    1    8   -0.14302268E-02  0.12806191E-11
    2    8   -0.75537993E-03 -0.62131536E-12
    3    8   -0.46221074E-03 -0.28562361E-11
    4    8    0.59220357E-03 -0.94192779E-11
    5    8    0.10775191E-02  0.51923694E-12
    6    8    0.24640344E-03 -0.17215733E-11
    7    8   -0.12343694E-03  0.28396850E-12
    8    8   -0.85001651E-03  0.11106629E-11
    9    8    0.53855430E-03 -0.58515200E-12
    1    9    0.34422848E-04 -0.19504456E-11
    2    9    0.44242467E-03  0.17758923E-12
    3    9   -0.65013749E-03 -0.73785960E-11
    4    9    0.11083189E-02 -0.51752760E-11
    5    9    0.45398333E-03  0.86587065E-12
    6    9   -0.53183410E-03 -0.13002893E-11
    7    9   -0.21568844E-03  0.15968772E-11
    8    9    0.53855430E-03  0.17946505E-11
    9    9    0.67042940E-04  0.13671175E-11

   -3    0   -3
    1    1   -0.22337446E-02  0.45392199E-15
    2    1   -0.53149265E-12 -0.57060780E-11
    3    1    0.23758682E-11  0.42338338E-11
    4    1    0.56310437E-12 -0.12963554E-11
    5    1   -0.56582029E-03 -0.93551080E-12
    6    1   -0.16162761E-02  0.16431310E-13
    7    1    0.11398454E-02 -0.52475884E-12
    8    1   -0.31965468E-03  0.24464708E-11
    9    1    0.97228020E-03 -0.21092957E-11
    1    2   -0.54170154E-12  0.57060780E-11
    2    2    0.76151562E-02  0.50060467E-15
    3    2    0.27632957E-02 -0.32531962E-11
    4    2   -0.19087589E-02  0.23315199E-11
    5    2    0.11972876E-12 -0.21876962E-11
    6    2    0.41532222E-12 -0.84834396E-12
    7    2    0.39794584E-11  0.20922916E-11
    8    2    0.35842838E-11 -0.13054970E-11
    9    2   -0.64318779E-11  0.48154704E-12
    1    3    0.23673507E-11 -0.42338338E-11
    2    3    0.27632957E-02  0.32533349E-11
    3    3    0.66261698E-02  0.33053527E-15
    4    3   -0.16016452E-02 -0.10304491E-10
    5    3    0.17483209E-11 -0.30544629E-11
    6    3    0.21764680E-11  0.11484771E-11
    7    3    0.14666281E-12  0.27589519E-11
    8    3    0.34190807E-11 -0.65250236E-12
    9    3   -0.67996649E-12 -0.10920084E-11
    1    4    0.57164157E-12  0.12963554E-11
    2    4   -0.19087589E-02 -0.23314091E-11
    3    4   -0.16016452E-02  0.10304408E-10
    4    4    0.54893819E-02  0.46032784E-15
    5    4   -0.42358018E-13  0.17411350E-11
    6    4   -0.32025561E-11 -0.16623206E-11
    7    4    0.10876347E-11 -0.34816750E-11
    8    4   -0.13815824E-11  0.32323935E-11
    9    4    0.19052774E-11  0.33289734E-11
[...]
    7    7    0.47999581E-12 -0.12622199E-12  0.26235797E-11 -0.74077418E-12  0.23671330E-11 -0.21969243E-12
    8    7    0.15623107E-04  0.19183162E-11  0.14490142E-04  0.15490978E-12 -0.49662021E-05  0.23568283E-12
    9    7   -0.63921155E-04 -0.10218782E-11  0.22120531E-04  0.56185143E-11  0.36055157E-04 -0.17442779E-12
    1    8    0.14103375E-04  0.13552295E-11  0.11725581E-03  0.30137464E-11  0.35604527E-04  0.41265596E-12
    2    8    0.45332344E-04  0.10674567E-11  0.21374389E-03  0.74893254E-11 -0.88847219E-04  0.26083230E-11
    3    8    0.45489802E-04  0.40706906E-11 -0.34844240E-04  0.29342354E-11  0.60767080E-05 -0.35217394E-11
    4    8   -0.93915784E-04 -0.34475747E-11  0.65305721E-04 -0.78271188E-11  0.10177949E-03  0.25232903E-11
    5    8    0.17936893E-04  0.18282206E-11 -0.86215828E-04  0.14988173E-11  0.18061874E-05  0.15946317E-11
    6    8    0.29204302E-04  0.44621931E-11  0.21317173E-04  0.41313733E-11  0.39406615E-04  0.86612611E-12
    7    8    0.68008361E-05 -0.75188202E-12  0.36134288E-04 -0.33613151E-11  0.24527381E-05  0.13280124E-11
    8    8   -0.39139590E-13 -0.58792535E-12  0.91189227E-12  0.87586516E-12 -0.75436671E-12 -0.11494588E-11
    9    8    0.49628686E-04 -0.45246179E-11 -0.17310692E-04  0.10040712E-10  0.41797158E-04 -0.16071923E-11
    1    9    0.33445884E-04  0.38027445E-11 -0.34010836E-04 -0.60426501E-12  0.16945287E-04 -0.13023950E-11
    2    9    0.15145525E-04  0.21192074E-12  0.72654939E-04 -0.98690671E-12  0.19769143E-04 -0.12734366E-11
    3    9   -0.10823023E-03  0.11864467E-11 -0.22590496E-03 -0.24203603E-12 -0.35001426E-04  0.75270371E-12
    4    9   -0.10097436E-03 -0.20074012E-11 -0.20047235E-04  0.18438397E-11 -0.46244668E-04  0.26541061E-11
    5    9    0.15293981E-04  0.23508321E-11  0.40856954E-04  0.62735637E-12  0.46623891E-05 -0.54842041E-12
    6    9    0.37757820E-04  0.32383475E-11 -0.78276964E-04 -0.71895575E-11 -0.24002333E-04  0.19119019E-11
    7    9   -0.62391800E-04  0.43885185E-12  0.57159218E-04  0.70084978E-11 -0.44671886E-05 -0.68149132E-12
    8    9    0.39495448E-04  0.40203717E-12  0.74118752E-04  0.67371825E-11 -0.18755153E-04 -0.22535740E-12
    9    9   -0.24305558E-12  0.10735811E-11 -0.26168883E-11 -0.13260585E-11 -0.49548860E-12  0.56507964E-12

    4    2    2
    1    1    0.77860074E-13 -0.65020168E-13  0.81225683E-13 -0.61815081E-12  0.11352712E-12  0.32575249E-12
    2    1    0.13672333E-03 -0.46692258E-11  0.20268449E-03 -0.18344497E-11  0.12433065E-03 -0.84740949E-12
    3    1    0.35419619E-03  0.16508438E-11  0.79674125E-04  0.73059739E-12  0.13568065E-03  0.31748502E-12
    4    1    0.84398983E-04  0.12043282E-11 -0.10979098E-03 -0.16182230E-11  0.20736523E-03  0.80501401E-13
    5    1   -0.17666830E-04  0.16242727E-11 -0.17066993E-04  0.86390313E-12  0.31280847E-04 -0.50819814E-12
    6    1    0.31848826E-04 -0.95293942E-12 -0.57451257E-05 -0.27411555E-11  0.46502569E-04 -0.51810280E-11
    7    1    0.37959517E-04 -0.57177154E-12  0.43090999E-04  0.96113982E-12  0.32424201E-04  0.52496309E-11
    8    1    0.71840089E-04  0.24520667E-11 -0.51385815E-05  0.11721090E-12  0.27848382E-04  0.20505039E-12
    9    1    0.18960257E-04 -0.27883620E-11  0.55544965E-04 -0.12229225E-11 -0.55280805E-05 -0.13453030E-11
    1    2   -0.20018980E-03  0.84431951E-12  0.15428705E-03  0.76449281E-12 -0.16441848E-03  0.23252996E-11
    2    2   -0.17306223E-12  0.42715549E-13  0.41235990E-13 -0.55554482E-12  0.34843183E-12 -0.94028752E-13
    3    2    0.16481569E-03  0.12201656E-11  0.14701336E-03  0.16637469E-12 -0.33825865E-03  0.22332996E-12
    4    2   -0.23309304E-03 -0.17533658E-11  0.17786041E-03  0.16097509E-11 -0.37584187E-03 -0.54244014E-12
    5    2   -0.18710108E-04  0.44058297E-12  0.53895156E-04  0.31962718E-11 -0.14046393E-03  0.43570918E-11
    6    2    0.13792253E-03 -0.11801312E-11 -0.31572655E-05 -0.12165737E-11 -0.58305855E-04 -0.10882448E-11
    7    2   -0.27031699E-04 -0.29638119E-12  0.62414121E-04  0.18782218E-11 -0.60323175E-04  0.11718074E-11
    8    2   -0.92875279E-04 -0.56584934E-11  0.21766846E-03 -0.91804783E-12  0.48765346E-04 -0.39671624E-11
    9    2    0.10578663E-03  0.80045361E-12 -0.74724573E-04 -0.54694432E-12  0.61970588E-04  0.12598235E-11
    1    3   -0.24382146E-03  0.12130526E-12 -0.11334893E-03 -0.63515220E-13 -0.20137756E-03 -0.92073213E-13
    2    3   -0.10673469E-03  0.41227400E-12 -0.10858397E-03  0.51265600E-12  0.24812024E-03  0.39519716E-12
    3    3    0.18382559E-12  0.14210145E-12 -0.12647575E-12  0.31876927E-12  0.17751811E-12  0.32232107E-12
    4    3   -0.67484768E-04 -0.11558289E-11  0.37785446E-03  0.45437080E-12 -0.11418746E-03 -0.53450926E-12
    5    3    0.86232524E-04  0.35136415E-12 -0.27693704E-04  0.20853544E-12 -0.21267370E-03  0.62711435E-12
    6    3    0.17270226E-03  0.21354045E-11  0.12711432E-03  0.19307060E-11  0.98823100E-05  0.26575015E-11
    7    3    0.67011065E-04 -0.49987608E-12 -0.14389710E-03 -0.12727936E-11 -0.14351199E-03  0.87641370E-12
    8    3   -0.75395889E-04 -0.51492483E-12  0.99828514E-04 -0.35669022E-12  0.74732483E-04 -0.21243224E-12
    9    3    0.10017446E-03  0.32371612E-11 -0.13681192E-03  0.32508253E-11  0.12845413E-03 -0.57325066E-13
    1    4   -0.11613636E-03  0.94248039E-12 -0.34529749E-03 -0.45662797E-12  0.15422323E-03 -0.10131217E-11
    2    4   -0.23651483E-03 -0.39278461E-12 -0.46158352E-03 -0.16968064E-11 -0.51366658E-05 -0.85783531E-12
    3    4    0.89752847E-04  0.95461721E-12 -0.51343385E-03 -0.94903066E-12  0.14707985E-03  0.52655748E-12
    4    4    0.18320090E-12  0.87558427E-13 -0.68154857E-14  0.56616624E-13  0.34091288E-12  0.43035609E-12
    5    4    0.58757211E-04 -0.21258786E-12 -0.34777764E-04  0.43502540E-12 -0.57610734E-04 -0.57995111E-12
    6    4    0.10693945E-03 -0.18467414E-11  0.65630927E-04 -0.19059314E-11 -0.18562643E-04 -0.17388221E-11
    7    4   -0.59945236E-04 -0.13433157E-11 -0.24547685E-03 -0.82584365E-12  0.13428160E-03  0.29789859E-12
    8    4   -0.15148799E-04 -0.22401446E-11 -0.10410644E-03 -0.86310222E-12  0.15450428E-03 -0.27340650E-11
    9    4    0.19188233E-04 -0.19464689E-11 -0.58084277E-04  0.13755969E-11 -0.45327053E-04  0.11127061E-11
    1    5    0.94933872E-05 -0.23056892E-12  0.30392488E-04  0.10481275E-11 -0.67246285E-04  0.25029834E-11
    2    5    0.16239263E-05 -0.30248162E-11  0.12466652E-03 -0.49867773E-12 -0.47525618E-04 -0.71823396E-11
    3    5    0.40591506E-04 -0.18284681E-11  0.11410555E-03  0.16440732E-11  0.66693417E-04  0.19635000E-12
    4    5   -0.21572053E-05  0.20618549E-11  0.22517453E-04  0.26826403E-11 -0.44211978E-04 -0.54388588E-11
    5    5    0.27386867E-12  0.25351396E-12 -0.27221740E-12  0.46228888E-12  0.72035363E-12 -0.25891849E-12
    6    5    0.23316654E-04 -0.45846272E-12 -0.53995339E-04 -0.17326787E-12 -0.45732466E-04 -0.27697779E-11
    7    5   -0.56583296E-05  0.18238026E-11  0.18913594E-04  0.13457314E-11 -0.41221885E-04  0.15854147E-11
    8    5    0.31201057E-04  0.77595959E-12  0.16162528E-04 -0.11381507E-11 -0.40300598E-04 -0.76180025E-12
    9    5    0.35732843E-04 -0.26221788E-11 -0.31924966E-04  0.90465101E-12  0.29713703E-05  0.51606938E-12
    1    6    0.10164489E-03  0.93223290E-12  0.73276574E-04 -0.14917389E-11  0.12724276E-04 -0.82675227E-12
    2    6   -0.16865248E-03  0.48277953E-11  0.66481327E-04 -0.95075244E-12 -0.32541816E-04 -0.52855989E-11
    3    6   -0.12459913E-03 -0.50190412E-11  0.26669531E-04 -0.27375204E-12 -0.19494563E-03  0.34157955E-11
    4    6   -0.12716638E-03  0.20389445E-11 -0.33399418E-04 -0.99811243E-12  0.18190582E-04  0.62813525E-11
    5    6   -0.26016542E-04 -0.91992494E-12  0.13511104E-05 -0.86709876E-12  0.88688157E-05  0.33595251E-11
    6    6    0.54279228E-12 -0.24723739E-11  0.71881109E-12  0.53500054E-12 -0.16756011E-11 -0.74087052E-12
    7    6    0.19747750E-04  0.52448586E-11  0.57051737E-04  0.29692093E-11 -0.12996712E-04 -0.12483034E-11
    8    6    0.34102809E-04 -0.67002988E-12 -0.51680716E-06  0.11579233E-11 -0.23504837E-04  0.29548697E-11
    9    6    0.15406575E-04  0.74942409E-11  0.70623134E-05 -0.21154633E-11 -0.17786646E-04 -0.50967415E-11
    1    7    0.67512433E-04 -0.19034659E-11 -0.27093386E-04  0.14916714E-12  0.35109145E-04  0.57724919E-12
    2    7    0.33434713E-04 -0.15478908E-11  0.50669869E-04 -0.79132978E-12 -0.32819736E-04 -0.23054551E-11
    3    7    0.61099571E-04  0.64609349E-12  0.21321998E-04 -0.52500273E-11  0.12019509E-03  0.35890685E-12
    4    7    0.23129963E-04 -0.57193169E-13 -0.23174010E-03  0.72973561E-12  0.16539061E-03  0.93286900E-12
    5    7   -0.10657838E-04 -0.32036317E-12 -0.25136819E-05 -0.24847818E-11 -0.13664622E-04 -0.15321252E-12
    6    7    0.35748921E-04 -0.21710445E-11  0.11505006E-04 -0.13136338E-10 -0.43705856E-04 -0.32301282E-11
    7    7   -0.13093955E-12  0.53635391E-13 -0.29891761E-12  0.36472264E-11 -0.26968563E-12  0.57758268E-12
    8    7   -0.10537950E-05  0.99785196E-12 -0.18218973E-04  0.15736352E-11 -0.18725572E-05 -0.30042561E-11
    9    7    0.57828622E-05 -0.43757540E-11 -0.24643944E-04 -0.10308734E-11 -0.25791205E-04 -0.22578682E-11
    1    8    0.58948362E-04 -0.11538874E-12  0.74889221E-04 -0.97450653E-12  0.60785362E-04  0.11963497E-12
    2    8    0.40230822E-04  0.54563334E-11  0.18245310E-03  0.33722952E-11 -0.86196520E-04  0.26235118E-11
    3    8    0.33033305E-05  0.45369172E-11  0.20620008E-05  0.25095909E-12 -0.76039679E-04  0.10808234E-11
    4    8    0.20545169E-04  0.16528624E-12 -0.17349236E-03  0.47273060E-11  0.83215308E-04  0.13167419E-11
    5    8    0.25683086E-04  0.14462224E-11  0.29390380E-05 -0.33002189E-13 -0.13918273E-04 -0.69784453E-12
    6    8   -0.29183053E-04 -0.92899954E-12  0.86538967E-05 -0.28088788E-11  0.46617685E-04  0.28016034E-13
    7    8   -0.98633567E-05  0.14925701E-11  0.23641075E-04  0.67328322E-13  0.76898240E-06 -0.49331526E-11
    8    8    0.27756523E-12  0.31129948E-12 -0.15734086E-11  0.14723820E-11  0.11209145E-11 -0.29770386E-12
    9    8   -0.39330983E-05  0.48826816E-12  0.80760511E-05 -0.43993145E-11  0.41482729E-04  0.21918183E-11
    1    9    0.59210286E-04 -0.44277848E-11 -0.70835102E-04 -0.50146053E-12  0.74023867E-04 -0.14915181E-11
    2    9   -0.12595788E-03  0.15168070E-11 -0.40014734E-04 -0.44158872E-11  0.23462487E-04 -0.77338768E-12
    3    9   -0.72396312E-04 -0.22985019E-11 -0.22482569E-03  0.29996953E-11  0.26063074E-04 -0.19563418E-11
    4    9   -0.22026311E-04  0.50015929E-12 -0.63698034E-04  0.26044309E-11  0.41626188E-04 -0.11369295E-11
    5    9    0.11156196E-04 -0.60267186E-13 -0.21129634E-04  0.10358219E-11  0.40936489E-04  0.37959431E-12
    6    9    0.15194123E-04 -0.54204329E-11  0.23060693E-04  0.42819424E-11 -0.27073893E-04  0.18020056E-12
    7    9   -0.56484902E-05  0.14560496E-11 -0.59613251E-04 -0.49656402E-11  0.30910834E-04 -0.26414918E-12
    8    9    0.34310375E-04  0.36657066E-11 -0.39571852E-04  0.10550505E-11  0.22139719E-04  0.26919043E-11
    9    9   -0.14037940E-11 -0.76708860E-12  0.51052023E-12 -0.42791742E-11  0.11339030E-11  0.45824003E-12

    4    3    1
    1    1   -0.37162085E-12  0.47032707E-13  0.21434400E-12  0.98450192E-13 -0.13773993E-12 -0.62938963E-12
    2    1   -0.12973730E-03 -0.17401554E-11  0.92982487E-04 -0.11555335E-11  0.93477955E-04  0.15419535E-11
    3    1    0.15036927E-03  0.13435020E-11  0.77515044E-04 -0.13931494E-11 -0.12668937E-03 -0.44399396E-12
    4    1    0.86255077E-04 -0.50476710E-12  0.20891075E-03 -0.29337298E-11  0.87317185E-04 -0.29353794E-12
    5    1   -0.24993270E-04  0.10051482E-12  0.18092567E-04  0.29677578E-11 -0.17796314E-04 -0.44617408E-12
    6    1    0.73997570E-04  0.29626295E-11 -0.17519050E-04 -0.12169641E-11  0.68982687E-04  0.19097316E-12
    7    1   -0.16295432E-04 -0.16302109E-11  0.61483162E-04  0.31164865E-11 -0.49053657E-04 -0.50529447E-13
    8    1    0.17384991E-04  0.17068035E-12  0.45939624E-04  0.14009724E-11 -0.13450642E-04 -0.12676648E-11
    9    1    0.35710686E-04 -0.22508110E-11 -0.63702767E-05 -0.66902168E-11  0.39692180E-04  0.21118021E-11
    1    2   -0.10302163E-03  0.70189080E-14  0.71748903E-04  0.24667395E-12 -0.25733150E-03  0.11819438E-11
    2    2   -0.42783036E-12 -0.51302714E-12  0.48456016E-12  0.17127519E-12 -0.16921885E-12  0.11694742E-12
    3    2    0.10033839E-03  0.52870446E-12  0.67787698E-04 -0.11355726E-11  0.41374480E-04  0.10202717E-11
    4    2    0.69012465E-04  0.54218757E-14  0.14993283E-03  0.12734361E-11 -0.30235212E-04 -0.51116120E-12
    5    2   -0.73779129E-04  0.80682653E-13  0.52273334E-04  0.13629899E-11  0.11515997E-03  0.17258702E-12
    6    2    0.11272102E-03  0.66113163E-12 -0.68567628E-04  0.13810089E-11  0.61737507E-05 -0.99094759E-12
    7    2   -0.68486904E-04  0.20084423E-12  0.64270793E-04  0.38066230E-12 -0.36224165E-05  0.39575271E-12
    8    2    0.70616260E-04 -0.43478228E-11  0.15204947E-03 -0.51689437E-11  0.13491884E-03 -0.68845969E-12
    9    2    0.10265210E-03 -0.17397099E-11 -0.16459010E-05 -0.22484965E-11 -0.38055562E-03  0.15268021E-11
    1    3   -0.25750714E-03  0.16856095E-11 -0.64258643E-06  0.43825712E-12 -0.10460720E-03 -0.10474598E-11
    2    3    0.39966394E-04 -0.26315138E-12 -0.13280661E-04 -0.38201771E-12  0.43405250E-04  0.13275660E-11
    3    3    0.69549110E-12 -0.32653422E-12 -0.34627645E-12  0.32681373E-12  0.63592794E-12  0.21118184E-12
    4    3    0.58422550E-04 -0.18960708E-11  0.11257108E-03 -0.69296869E-12 -0.38646755E-04  0.10411247E-11
    5    3    0.12853772E-03  0.69969640E-12 -0.23129092E-03  0.42311474E-12 -0.27347549E-04  0.35072107E-12
    6    3    0.62084407E-04 -0.29271062E-11  0.33274779E-04  0.11806735E-11  0.10726026E-03 -0.27737097E-12
    7    3    0.10254052E-03  0.21211013E-11  0.86479175E-04 -0.19442656E-11 -0.77775779E-04 -0.11893515E-12
    8    3    0.35446543E-04  0.15698602E-11 -0.90995489E-04  0.13563772E-12  0.92636085E-05 -0.29711226E-12
    9    3   -0.82503570E-04 -0.20195432E-11  0.29188414E-03 -0.23677357E-11  0.11046264E-03  0.96479493E-12
    1    4   -0.68853810E-05 -0.57760651E-12 -0.26202818E-03 -0.94573715E-12  0.73204250E-04 -0.65099083E-12
    2    4   -0.12972283E-04  0.18258904E-13  0.29833509E-04 -0.95759097E-12 -0.30591118E-04 -0.17678005E-12
    3    4   -0.42743900E-04  0.10982786E-12 -0.31518997E-04 -0.36549652E-12 -0.38143408E-04  0.30939398E-13
    4    4   -0.13819308E-12  0.31662472E-12  0.66545628E-14 -0.35735870E-12  0.24160875E-12 -0.23035653E-12
    5    4   -0.23029055E-03 -0.91260869E-12 -0.38746689E-04 -0.19575322E-11  0.18996278E-04 -0.87171702E-12
    6    4   -0.20468236E-04 -0.11872990E-11 -0.89010783E-04 -0.10662583E-11 -0.76863686E-04  0.15472747E-11
    7    4    0.10824849E-04 -0.21748476E-12 -0.80756293E-04 -0.48033883E-12  0.51125235E-04 -0.15848326E-11
    8    4   -0.10901726E-03 -0.13314518E-11 -0.48646758E-04 -0.41505342E-11  0.85730904E-04 -0.22406671E-12
    9    4    0.28514223E-03 -0.57158198E-12  0.12183056E-03  0.81638419E-12 -0.44470952E-04  0.46571724E-12
    1    5    0.24408954E-04  0.21271197E-11 -0.16747586E-04 -0.32965298E-12  0.23796893E-04 -0.96968062E-12
    2    5    0.39120289E-04 -0.70572648E-12 -0.27849306E-04 -0.21911721E-11 -0.11180957E-03  0.19104812E-12
    3    5    0.53964773E-04  0.99584182E-12  0.76133322E-04 -0.11278463E-11  0.19582969E-03  0.18600749E-11
    4    5    0.76613390E-04 -0.24384520E-14  0.10940506E-03  0.32979638E-11 -0.13668538E-03 -0.41884700E-11
    5    5   -0.85080928E-13  0.43120575E-12  0.10659333E-13 -0.11315773E-12  0.13312159E-11  0.77882987E-12
    6    5   -0.21699638E-04  0.16350182E-11  0.10801747E-04  0.17799595E-12  0.69950327E-05 -0.39655160E-11
    7    5    0.10543838E-04 -0.56631860E-13 -0.14201793E-04  0.82772172E-13 -0.50067910E-05  0.57688668E-12
    8    5   -0.29053594E-04  0.20453905E-11 -0.16479995E-04  0.46577876E-12  0.57535387E-06 -0.11732058E-11
    9    5    0.27026449E-04  0.10052258E-11 -0.31818840E-04 -0.39360781E-11 -0.13964098E-05  0.17098481E-11
    1    6    0.19649518E-04  0.75489226E-12 -0.22318479E-05 -0.18658803E-12  0.16310155E-04  0.15973610E-12
    2    6   -0.66010613E-04  0.15414365E-11  0.34424308E-04 -0.18267012E-12  0.88558803E-04 -0.30376506E-11
    3    6    0.70999673E-04  0.29310086E-11 -0.10846141E-03  0.22672452E-12 -0.86991853E-05  0.33031447E-11
    4    6    0.91884171E-04  0.69170178E-11  0.10338344E-03 -0.17699529E-11  0.11746656E-03  0.38307536E-11
    5    6   -0.44949152E-04 -0.33386341E-12  0.28919755E-04  0.25099414E-12  0.45063947E-04  0.16037162E-11
    6    6   -0.52808984E-12  0.44033364E-12  0.37673490E-12 -0.40850846E-12 -0.25897787E-11  0.52581643E-12
    7    6    0.46978969E-04 -0.28290971E-11 -0.81594940E-05  0.63250466E-12  0.58841073E-04 -0.47306652E-12
    8    6    0.30355241E-04  0.62618906E-12  0.26732711E-04 -0.28959088E-12 -0.29528216E-04  0.37138519E-11
    9    6    0.79752671E-05  0.68438240E-11  0.45144594E-04  0.30337039E-11  0.27517282E-04 -0.30915377E-11
    1    7   -0.19288859E-05 -0.32157974E-12  0.18095171E-04  0.75832768E-12 -0.11657626E-04 -0.26544829E-12
    2    7    0.34554250E-04 -0.18680566E-12 -0.41767070E-04 -0.15222375E-11 -0.62239789E-04 -0.11571424E-11
    3    7   -0.87736694E-04 -0.18619336E-12 -0.14776645E-03 -0.49110867E-11  0.11497339E-03 -0.95337053E-12
    4    7    0.13282066E-03 -0.11778346E-11 -0.40439581E-04 -0.63655678E-14  0.75347875E-04 -0.24298858E-11
    5    7    0.28820722E-04 -0.77129712E-12 -0.24637018E-04 -0.26703693E-12 -0.31716101E-04  0.12609681E-11
    6    7    0.47294959E-04 -0.65346269E-12 -0.77342573E-05  0.29809531E-11  0.58326438E-04 -0.62839908E-12
    7    7   -0.27317209E-12  0.99765197E-13  0.77565908E-12  0.64801377E-12  0.14811276E-11  0.18095749E-11
    8    7   -0.28332164E-04 -0.10193115E-11 -0.36424530E-04 -0.28163182E-12 -0.15560837E-04  0.53275475E-12
    9    7    0.25953737E-04 -0.27723135E-12  0.10002633E-04  0.44872390E-11 -0.32710417E-04 -0.76531676E-11
    1    8    0.22586974E-04 -0.10928349E-11  0.43433595E-05 -0.27768985E-12  0.17422049E-04 -0.10712803E-12
    2    8   -0.29383216E-04 -0.22812034E-12 -0.21696580E-03  0.15354683E-11 -0.21971242E-04  0.14035139E-11
    3    8    0.62689932E-04  0.22610305E-11  0.52233903E-05  0.27693294E-11  0.12971617E-03  0.44674582E-11
    4    8    0.16943125E-03  0.54276346E-11 -0.14746768E-04  0.35424699E-11  0.72824911E-04  0.35106522E-11
    5    8   -0.27331199E-04  0.54354885E-12 -0.23681528E-04  0.81824789E-12 -0.48331017E-05 -0.95526913E-12
    6    8    0.74870712E-05 -0.14728647E-11  0.44593458E-04  0.23582902E-11 -0.60780072E-05 -0.91920226E-13
    7    8   -0.44835802E-04 -0.35025165E-12 -0.23794862E-04 -0.35281470E-11  0.87891663E-05 -0.28783893E-11
    8    8    0.10560050E-11  0.21610090E-12 -0.11260508E-12 -0.14946709E-12  0.34162814E-12 -0.37226020E-12
    9    8    0.12935328E-04  0.15447600E-11  0.16267799E-04  0.47906284E-11  0.59343250E-05 -0.89991260E-12
    1    9   -0.32899042E-04 -0.31287950E-11  0.28924497E-04 -0.35694147E-11 -0.47785627E-04  0.86217584E-13
    2    9   -0.27146906E-03  0.43366039E-11  0.10849484E-03 -0.70680153E-12  0.61182756E-04  0.77674648E-12
    3    9    0.15201598E-04  0.40947265E-11 -0.20220011E-03 -0.20809071E-12 -0.12299007E-03  0.49642345E-13
    4    9   -0.14523669E-03 -0.51762612E-11 -0.15835909E-03 -0.43131657E-12  0.14315424E-03 -0.13039158E-11
    5    9    0.13206902E-04  0.50242581E-11 -0.24118444E-04 -0.70028113E-12  0.13635451E-04  0.10154354E-12
    6    9    0.22036218E-04  0.31783793E-11  0.32478924E-04  0.31667627E-11  0.23381047E-04 -0.30387147E-12
    7    9    0.92743253E-06 -0.13366951E-12  0.23574791E-04  0.21020370E-11 -0.14940870E-04 -0.13856722E-11
    8    9    0.13493790E-04  0.42180500E-11  0.15993158E-04  0.42080572E-11  0.60996594E-05  0.11454117E-12
    9    9   -0.19218228E-12 -0.79871750E-12  0.97261948E-12 -0.51381933E-12 -0.80008757E-12 -0.79895947E-12
