 written on 13Jun2026 at 20:45:10 
   2.48202900000000       0.000000000000000E+000  0.000000000000000E+000
 -0.827343000000000        2.34007900000000       0.000000000000000E+000
 -0.827343000000000       -1.17004000000000        2.02656800000000     
           9
         229
    1    1    2    1    2    1    1    2    1    1    2    1    1    1    1
    1    1    1    1    1    2    2    1    1    2    2    1    1    1    1
    1    1    1    1    1    1    1    1    1    1    1    1    1    1    1
    1    1    1    1    1    1    1    1    1    1    1    2    1    2    1
    1    1    1    1    1    1    1    1    1    1    1    1    1    1    1
    1    1    1    1    1    1    1    1    1    1    1    1    1    1    1
    1    1    1    1    1    2    1    1    2    1    1    1    1    1    1
    1    1    1    1    1    1    2    1    1    1    1    1    2    1    1
    1    1    1    1    1    1    1    1    1    1    2    1    1    2    1
    1    1    1    1    1    1    1    1    1    1    1    1    1    1    1
    1    1    1    1    1    1    1    1    1    1    1    1    1    1    1
    1    1    1    1    1    2    1    2    1    1    1    1    1    1    1
    1    1    1    1    1    1    1    1    1    1    1    1    1    1    1
    1    1    1    1    1    1    1    1    2    2    1    1    2    2    1
    1    1    1    1    1    1    1    1    2    1    1    2    1    1    2
    1    2    1    1

   -4   -3   -1
    1    1    0.18725262E-03 -0.15788759E-12
    2    1   -0.37172588E-03 -0.26874145E-11
    3    1   -0.31416986E-03  0.32730242E-12
    4    1    0.35533396E-03 -0.34082476E-11
    5    1    0.39210973E-03 -0.68252522E-12
    6    1   -0.80583130E-04  0.85514408E-12
    7    1    0.81954480E-04  0.19775934E-12
    8    1    0.20738946E-03 -0.29012610E-11
    9    1   -0.58405562E-03 -0.43568664E-12
    1    2    0.37172587E-03 -0.91707891E-12
    2    2   -0.34994039E-02  0.59340866E-11
    3    2    0.35016075E-02 -0.34845234E-11
    4    2   -0.24574245E-02 -0.13322191E-11
    5    2    0.14516167E-02  0.70126804E-12
    6    2    0.21042419E-02 -0.11018434E-11
    7    2   -0.14816808E-02  0.30826557E-12
    8    2    0.53247779E-05 -0.49128051E-11
    9    2   -0.20276603E-04 -0.40484667E-12
    1    3    0.31416987E-03 -0.30514410E-11
    2    3    0.35016075E-02 -0.45251199E-11
    3    3   -0.56130748E-02 -0.29609648E-11
    4    3   -0.31289224E-02 -0.46258674E-11
    5    3   -0.54620676E-03  0.19221074E-11
    6    3    0.23983459E-02 -0.79685650E-12
    7    3   -0.24325053E-03  0.14049337E-11
    8    3    0.14889828E-02  0.22810191E-11
    9    3   -0.57140381E-03 -0.45247616E-12
    1    4   -0.35533396E-03  0.41953975E-11
    2    4   -0.24574246E-02 -0.13817524E-11
    3    4   -0.31289224E-02 -0.76585916E-11
    4    4   -0.79384109E-02 -0.57789884E-12
    5    4    0.40060696E-03 -0.46017617E-12
    6    4   -0.16283404E-03  0.19009455E-11
    7    4    0.22684436E-02 -0.13229712E-11
    8    4    0.14101289E-02  0.34975165E-11
    9    4    0.12259480E-02 -0.11604467E-11
    1    5    0.39210973E-03  0.81053306E-12
    2    5   -0.14516167E-02 -0.13935259E-11
    3    5    0.54620676E-03  0.94224368E-12
    4    5   -0.40060696E-03 -0.14746633E-11
    5    5   -0.13536241E-02 -0.20785457E-13
    6    5    0.30667122E-03 -0.57944903E-12
    7    5   -0.21655999E-03 -0.71801462E-12
    8    5    0.20283235E-03 -0.50938866E-12
    9    5   -0.56982065E-03  0.23135142E-12
    1    6   -0.80583130E-04 -0.12721855E-12
    2    6   -0.21042419E-02 -0.61168865E-12
    3    6   -0.23983459E-02 -0.31327285E-12
    4    6    0.16283404E-03  0.40075135E-11
    5    6    0.30667122E-03  0.65044541E-13
    6    6   -0.19822284E-03 -0.80727092E-13
    7    6    0.79248745E-04 -0.35394018E-12
    8    6    0.28331565E-03 -0.75054177E-12
    9    6   -0.47060468E-03 -0.30727081E-12
    1    7    0.81954481E-04 -0.58154436E-12
    2    7    0.14816808E-02  0.23876023E-11
    3    7    0.24325053E-03 -0.30669693E-11
    4    7   -0.22684436E-02 -0.87275586E-12
    5    7   -0.21655999E-03  0.37982768E-12
    6    7    0.79248745E-04 -0.10691268E-11
    7    7   -0.14538639E-03  0.28581304E-13
    8    7    0.18296496E-04  0.67101473E-12
    9    7    0.40273787E-03  0.14006998E-11
    1    8    0.20738946E-03 -0.39764138E-11
    2    8   -0.53247768E-05  0.25090640E-11
    3    8   -0.14889828E-02 -0.17655634E-11
    4    8   -0.14101289E-02 -0.16389650E-11
    5    8    0.20283235E-03 -0.12167912E-11
    6    8    0.28331565E-03  0.47663587E-12
    7    8    0.18296497E-04  0.93580146E-12
    8    8   -0.11273130E-03 -0.27011726E-12
    9    8    0.18056393E-03  0.41129079E-12
    1    9   -0.58405562E-03 -0.56410952E-12
    2    9    0.20276605E-04 -0.44815121E-11
    3    9    0.57140381E-03  0.23703825E-12
    4    9   -0.12259480E-02 -0.91600859E-12
    5    9   -0.56982065E-03 -0.16118021E-13
    6    9   -0.47060468E-03 -0.37070534E-12
    7    9    0.40273787E-03  0.74512271E-12
    8    9    0.18056393E-03  0.20621907E-11
    9    9   -0.57708464E-03 -0.91145494E-12

   -4   -2   -2
    1    1    0.75240915E-03 -0.19078419E-11
    2    1   -0.70068036E-03  0.16752693E-11
    3    1   -0.11128775E-02  0.67978418E-11
    4    1   -0.33307755E-03  0.10551438E-11
    5    1   -0.14522546E-03  0.27864863E-13
    6    1   -0.12219341E-03 -0.37028366E-12
    7    1   -0.95707591E-03 -0.11156770E-11
    8    1   -0.83852253E-03 -0.42513252E-11
    9    1   -0.90144583E-04 -0.21714102E-11
    1    2    0.70068035E-03 -0.83125173E-12
    2    2    0.42507377E-03  0.81697149E-12
    3    2   -0.46951372E-02  0.26021685E-11
    4    2   -0.47681384E-02 -0.36078432E-12
    5    2    0.87702001E-03  0.97579670E-12
    6    2   -0.60154101E-03 -0.25769621E-11
    7    2    0.22408574E-02 -0.10658297E-11
    8    2   -0.47808809E-03  0.37950190E-12
    9    2    0.74231780E-03 -0.19958761E-11
    1    3    0.11128775E-02 -0.42551726E-11
    2    3   -0.46951372E-02  0.23078935E-12
    3    3   -0.63458966E-02  0.12254420E-10
    4    3   -0.28458767E-02  0.92126150E-11
    5    3   -0.29598980E-03  0.82887950E-12
    6    3   -0.13796210E-02 -0.65648056E-11
    7    3    0.13858783E-02 -0.14132712E-11
    8    3    0.21150540E-02 -0.45299424E-11
    9    3   -0.79460632E-03 -0.36547263E-11
    1    4    0.33307755E-03 -0.34889383E-11
    2    4   -0.47681384E-02 -0.18576182E-11
    3    4   -0.28458767E-02 -0.43914004E-12
    4    4    0.57259839E-02 -0.32425312E-11
    5    4    0.16523803E-02  0.22711867E-13
    6    4    0.73165836E-03 -0.35520941E-12
    7    4    0.52965172E-03  0.19469157E-11
    8    4    0.41375779E-03  0.12625474E-11
    9    4   -0.14790864E-02 -0.91908252E-12
    1    5   -0.14522546E-03 -0.29647292E-13
    2    5   -0.87702001E-03 -0.22816141E-11
    3    5    0.29598979E-03 -0.30210123E-12
    4    5   -0.16523803E-02  0.44040353E-11
    5    5    0.34127420E-03  0.96930797E-12
    6    5   -0.21322282E-04  0.62465094E-12
    7    5   -0.58756977E-03  0.10503321E-11
    8    5    0.26728006E-03 -0.61291197E-12
    9    5   -0.17988865E-03 -0.10503995E-11
    1    6   -0.12219341E-03  0.48998305E-12
    2    6    0.60154101E-03  0.32247998E-11
    3    6    0.13796210E-02 -0.19444160E-11
    4    6   -0.73165836E-03  0.29883782E-11
    5    6   -0.21322282E-04  0.50989660E-12
    6    6    0.77072000E-03 -0.25524027E-12
    7    6    0.52178189E-03 -0.47931299E-12
    8    6    0.87346415E-03 -0.22420217E-12
    9    6   -0.12554445E-03 -0.74152847E-12
    1    7   -0.95707591E-03 -0.31243940E-11
    2    7   -0.22408574E-02 -0.30849368E-11
    3    7   -0.13858783E-02  0.35513598E-11
    4    7   -0.52965172E-03  0.23711250E-11
    5    7   -0.58756977E-03  0.11794719E-11
    6    7    0.52178190E-03 -0.11194728E-11
    7    7    0.85326912E-04  0.24236863E-12
    8    7    0.82609413E-04 -0.88413950E-12
    9    7    0.41900016E-03  0.17172604E-11
    1    8   -0.83852253E-03 -0.32792232E-11
    2    8    0.47808809E-03 -0.15566623E-11
    3    8   -0.21150540E-02  0.70746187E-11
    4    8   -0.41375780E-03  0.19929388E-11
    5    8    0.26728006E-03 -0.11315021E-11
    6    8    0.87346415E-03 -0.68761338E-12
    7    8    0.82609414E-04  0.10342627E-12
    8    8    0.51273094E-03 -0.11753098E-11
    9    8    0.41349827E-03 -0.11028951E-11
    1    9   -0.90144583E-04 -0.20713587E-11
    2    9   -0.74231780E-03  0.18819688E-11
    3    9    0.79460633E-03  0.49243019E-11
    4    9    0.14790864E-02 -0.23840842E-11
    5    9   -0.17988865E-03 -0.11529608E-11
    6    9   -0.12554445E-03 -0.85904702E-12
    7    9    0.41900016E-03  0.45562078E-12
    8    9    0.41349827E-03 -0.16796937E-12
    9    9    0.91035694E-03 -0.47016210E-12

   -4   -2   -1
    1    1   -0.76595402E-03 -0.10641835E-11
    2    1   -0.47805441E-03 -0.19180699E-11
    3    1    0.26299354E-04  0.36626500E-11
    4    1   -0.84236878E-03 -0.53885681E-11
    5    1    0.20156470E-03 -0.20275613E-11
    6    1    0.10562883E-02  0.97664064E-12
    7    1    0.38743042E-03  0.61365756E-12
    8    1   -0.81617628E-03  0.29244790E-11
    9    1   -0.62385455E-03 -0.65853312E-12
    1    2    0.47805440E-03 -0.76473550E-13
    2    2   -0.80391817E-03 -0.75640119E-11
    3    2   -0.16144665E-02  0.10498720E-12
    4    2    0.33647331E-02 -0.35872277E-11
    5    2    0.67843763E-03 -0.38370956E-12
    6    2   -0.28047293E-03 -0.85338030E-12
    7    2    0.39781804E-03 -0.27355358E-11
    8    2   -0.58209118E-03  0.22204218E-11
    9    2   -0.64190922E-03 -0.45480183E-11
    1    3   -0.26299347E-04 -0.10689678E-10
    2    3   -0.16144665E-02  0.70359343E-12
    3    3   -0.65122528E-02  0.97000463E-11
    4    3    0.81197944E-03 -0.17500298E-11
    5    3    0.73762329E-04 -0.16960296E-11
    6    3    0.13301385E-02  0.23837148E-11
    7    3    0.34781770E-04 -0.21505396E-11
    8    3    0.39234674E-04  0.36575153E-11
    9    3    0.23273275E-02  0.49429814E-11
    1    4    0.84236877E-03 -0.64022537E-11
    2    4    0.33647332E-02  0.69340714E-12
    3    4    0.81197945E-03  0.18751892E-11
    4    4    0.29981904E-02  0.10692697E-11
    5    4    0.32491898E-03  0.80251084E-12
    6    4    0.29198433E-03 -0.12845809E-11
    7    4    0.19182820E-03 -0.22324044E-11
    8    4   -0.14672525E-02 -0.29444433E-11
    9    4    0.30953453E-03  0.42735451E-11
    1    5    0.20156470E-03 -0.32852887E-12
    2    5   -0.67843763E-03 -0.99613980E-12
    3    5   -0.73762323E-04  0.19624016E-11
    4    5   -0.32491897E-03  0.27631283E-11
    5    5    0.42850507E-04  0.20378838E-12
    6    5    0.17704556E-03 -0.84558749E-12
    7    5    0.80274773E-03 -0.10710183E-12
    8    5    0.72290628E-03 -0.14444293E-12
    9    5    0.30564246E-03  0.21255808E-11
    1    6    0.10562883E-02  0.73686716E-12
    2    6    0.28047293E-03 -0.25991028E-11
    3    6   -0.13301385E-02  0.14573160E-11
    4    6   -0.29198433E-03 -0.20130847E-11
    5    6    0.17704556E-03 -0.12074586E-11
    6    6   -0.43166048E-03 -0.30995345E-12
    7    6    0.34553995E-03 -0.14718274E-11
    8    6   -0.15256338E-03 -0.37459727E-12
    9    6    0.82306313E-03 -0.46763437E-12
    1    7    0.38743042E-03 -0.24376950E-11
    2    7   -0.39781805E-03 -0.28338807E-11
    3    7   -0.34781761E-04  0.54949244E-11
    4    7   -0.19182820E-03  0.18190571E-12
    5    7    0.80274773E-03 -0.72563917E-12
    6    7    0.34553995E-03  0.14464231E-11
    7    7   -0.17054678E-03 -0.24662911E-12
    8    7   -0.38404234E-04 -0.98046744E-12
    9    7    0.78417340E-04 -0.95099991E-12
    1    8   -0.81617628E-03 -0.93479022E-12
    2    8    0.58209118E-03 -0.62394000E-12
    3    8   -0.39234678E-04  0.16336203E-11
    4    8    0.14672525E-02 -0.72868621E-12
    5    8    0.72290629E-03 -0.52037748E-12
    6    8   -0.15256338E-03  0.13293359E-12
    7    8   -0.38404235E-04  0.85610935E-13
    8    8   -0.21569245E-03  0.67038389E-12
    9    8    0.32713842E-03 -0.40599620E-12
    1    9   -0.62385455E-03  0.73234387E-12
    2    9    0.64190922E-03  0.39561145E-11
    3    9   -0.23273275E-02 -0.58913139E-11
    4    9   -0.30953452E-03  0.18938063E-11
    5    9    0.30564246E-03  0.82712895E-12
    6    9    0.82306313E-03  0.10932878E-13
    7    9    0.78417341E-04 -0.40107999E-12
    8    9    0.32713842E-03  0.26535349E-12
    9    9    0.51928278E-03  0.59099253E-12

   -4   -1   -3
    1    1    0.18887149E-03  0.19360208E-12
    2    1   -0.27733817E-04 -0.91055635E-14
    3    1   -0.39735112E-03 -0.31067163E-13
    4    1   -0.48849423E-03 -0.96956280E-11
    5    1   -0.13171730E-03  0.10237575E-11
    6    1   -0.57939548E-03 -0.63098832E-13
    7    1    0.41922483E-03 -0.74427877E-12
    8    1   -0.87205362E-04 -0.10956776E-11
    9    1    0.23616514E-03  0.13319133E-11
    1    2    0.27733819E-04  0.45516022E-12
    2    2   -0.89242161E-02  0.35993569E-11
    3    2   -0.92457748E-03  0.26398449E-11
    4    2    0.65026041E-03  0.62514924E-12
    5    2   -0.13020803E-04 -0.12138806E-11
    6    2    0.13857280E-02  0.12969053E-12
    7    2    0.19495290E-02  0.49513171E-12
    8    2    0.58385086E-03  0.57563798E-12
    9    2    0.20475526E-03 -0.19918311E-11
    1    3    0.39735112E-03 -0.56434371E-12
    2    3   -0.92457749E-03 -0.59240546E-11
    3    3   -0.57538504E-02 -0.35804693E-12
    4    3    0.45706265E-02 -0.82610030E-11
    5    3   -0.10430464E-02  0.83480185E-12
    6    3    0.71405162E-03 -0.24078135E-12
    7    3    0.13301863E-03  0.19347833E-11
    8    3    0.12084726E-02 -0.74585130E-12
    9    3    0.23551392E-02 -0.35744693E-11
    1    4    0.48849423E-03 -0.10242016E-10
    2    4    0.65026041E-03 -0.12185392E-11
    3    4    0.45706264E-02  0.89226352E-11
    4    4   -0.23898389E-02 -0.10442758E-11
    5    4   -0.14797976E-02  0.72096990E-11
    6    4    0.38570486E-03  0.31925681E-11
    7    4   -0.70391611E-03 -0.18960623E-11
    8    4   -0.21157510E-02  0.18980173E-11
    9    4    0.20092738E-02 -0.11974076E-10
    1    5   -0.13171730E-03  0.85342410E-12
    2    5    0.13020801E-04 -0.22481912E-11
    3    5    0.10430464E-02  0.93934669E-12
    4    5    0.14797976E-02  0.62417892E-11
    5    5   -0.78611069E-04 -0.14105384E-12
    6    5    0.14135924E-03  0.10177818E-12
    7    5   -0.10214504E-03  0.32481353E-12
    8    5    0.91925709E-04 -0.16844784E-12
    9    5   -0.25791199E-03 -0.74531784E-12
    1    6   -0.57939548E-03 -0.23396007E-11
    2    6   -0.13857280E-02 -0.14842997E-11
    3    6   -0.71405162E-03  0.78904158E-12
    4    6   -0.38570486E-03  0.14159736E-11
    5    6    0.14135924E-03 -0.12335207E-12
    6    6   -0.89412905E-03  0.33495082E-12
    7    6    0.74863220E-04  0.60781740E-12
    8    6    0.58413332E-03  0.32952070E-12
    9    6   -0.57700381E-04 -0.23864049E-13
    1    7    0.41922483E-03 -0.74919758E-12
    2    7   -0.19495290E-02  0.21469423E-11
    3    7   -0.13301863E-03  0.25361885E-12
    4    7    0.70391611E-03  0.10768600E-11
    5    7   -0.10214504E-03  0.20876573E-12
    6    7    0.74863219E-04  0.43016177E-12
    7    7   -0.84043865E-03  0.79584256E-12
    8    7    0.64966341E-03  0.20419641E-12
    9    7    0.41286749E-03  0.12218048E-12
    1    8   -0.87205365E-04 -0.25040430E-11
    2    8   -0.58385086E-03  0.20935346E-11
    3    8   -0.12084726E-02 -0.21057739E-11
    4    8    0.21157510E-02  0.75153009E-11
    5    8    0.91925709E-04 -0.69504996E-12
    6    8    0.58413332E-03  0.15317153E-12
    7    8    0.64966341E-03 -0.37610952E-12
    8    8   -0.66314489E-03 -0.96072109E-12
    9    8   -0.31489397E-03 -0.51237833E-12
    1    9    0.23616514E-03 -0.13178733E-11
    2    9   -0.20475526E-03  0.32534245E-12
    3    9   -0.23551392E-02 -0.14639657E-11
    4    9   -0.20092738E-02 -0.85908763E-11
    5    9   -0.25791199E-03 -0.66380045E-12
    6    9   -0.57700381E-04 -0.45554516E-13
    7    9    0.41286750E-03  0.34787863E-12
    8    9   -0.31489397E-03  0.57253811E-12
    9    9    0.10469141E-03 -0.80319432E-12

   -4   -1   -2
    1    1   -0.79551195E-03  0.51088300E-12
    2    1   -0.10713534E-02 -0.20137364E-11
    3    1    0.51650879E-08  0.18783620E-11
    4    1   -0.10625184E-08  0.25932589E-11
    5    1    0.81031612E-03 -0.15507326E-11
    6    1   -0.91409191E-09 -0.23286928E-12
    7    1   -0.20882702E-08  0.61399583E-12
    8    1   -0.46990781E-03  0.20693488E-11
    9    1    0.12543499E-02 -0.74315380E-12
    1    2    0.10713534E-02  0.37956235E-11
    2    2    0.49367522E-02 -0.94044841E-11
    3    2    0.15474772E-08  0.51245674E-11
    4    2    0.12895901E-07 -0.26103633E-11
    5    2    0.12620912E-02 -0.75626571E-12
    6    2   -0.26403970E-08 -0.16902890E-11
    7    2   -0.14224004E-08  0.14851870E-11
    8    2   -0.11884303E-02  0.41400163E-11
    9    2    0.58794567E-04 -0.17907361E-11
    1    3   -0.51708293E-08 -0.45731960E-11
    2    3    0.15528823E-08 -0.64279103E-11
    3    3   -0.64823343E-02  0.15153406E-10
    4    3   -0.18502602E-02  0.37711405E-11
    5    3   -0.34055684E-08 -0.81766703E-11
    6    3    0.27070664E-02  0.39252933E-11
    7    3    0.64116364E-04 -0.21881632E-11
    8    3    0.28309025E-08 -0.13074437E-11
    9    3   -0.86909604E-09 -0.12188119E-11
    1    4    0.10542770E-08  0.36593714E-11
    2    4    0.12888923E-07  0.34580984E-11
    3    4   -0.18502602E-02 -0.41743674E-11
    4    4   -0.27706395E-02 -0.16073115E-11
    5    4    0.78336613E-09  0.79512265E-12
    6    4   -0.80640338E-03 -0.44490115E-11
    7    4    0.50621769E-03 -0.92591733E-13
    8    4    0.19339976E-08 -0.84067475E-12
    9    4   -0.12627757E-08 -0.82286955E-12
    1    5    0.81031612E-03 -0.88850975E-12
    2    5   -0.12620912E-02  0.39339452E-12
    3    5    0.34065671E-08  0.30150275E-12
    4    5   -0.78833753E-09  0.28106285E-11
    5    5   -0.16735388E-03  0.11006543E-11
    6    5    0.41719539E-10  0.21009887E-13
    7    5    0.19272725E-08  0.10170293E-12
    8    5   -0.15977840E-03 -0.57560671E-12
    9    5    0.40070637E-03 -0.28812754E-12
    1    6   -0.90858225E-09 -0.36428499E-12
    2    6    0.26438727E-08  0.52075922E-12
    3    6   -0.27070664E-02 -0.79083875E-12
    4    6    0.80640338E-03 -0.16177828E-11
    5    6    0.43982504E-10 -0.48331261E-12
    6    6    0.10037693E-02 -0.75301917E-12
    7    6    0.48426605E-03 -0.32478902E-12
    8    6   -0.92095041E-09 -0.78200901E-12
    9    6    0.42128232E-09  0.72148974E-12
    1    7   -0.20903710E-08  0.51619039E-12
    2    7    0.14212516E-08  0.30940788E-11
    3    7   -0.64116365E-04  0.21018739E-12
    4    7   -0.50621769E-03 -0.42191858E-12
    5    7    0.19269214E-08 -0.13236270E-11
    6    7    0.48426605E-03  0.13533992E-11
    7    7    0.99241188E-03 -0.65217970E-12
    8    7   -0.22279949E-09  0.11264785E-12
    9    7    0.43794780E-09 -0.17915190E-11
    1    8   -0.46990781E-03  0.37644909E-12
    2    8    0.11884303E-02 -0.16685965E-11
    3    8   -0.28260090E-08 -0.16358789E-12
    4    8   -0.19398423E-08 -0.17695567E-11
    5    8   -0.15977839E-03 -0.53302275E-12
    6    8   -0.91969392E-09 -0.89499155E-12
    7    8   -0.22209598E-09  0.23187241E-12
    8    8   -0.11620243E-02  0.21845858E-11
    9    8   -0.67302331E-04  0.20168090E-12
    1    9    0.12543499E-02 -0.24309092E-11
    2    9   -0.58794568E-04  0.26330713E-11
    3    9    0.87165789E-09 -0.35983755E-11
    4    9    0.12644211E-08  0.65082315E-12
    5    9    0.40070637E-03  0.21034238E-12
    6    9    0.42030423E-09  0.54139169E-12
    7    9    0.43836350E-09 -0.19894006E-11
    8    9   -0.67302331E-04  0.22852141E-12
    9    9   -0.89478293E-03  0.25322799E-12

   -3   -4   -2
    1    1   -0.50532363E-03 -0.19864244E-11
    2    1    0.90820182E-03 -0.82821978E-11
    3    1    0.91439321E-04  0.86682571E-12
    4    1   -0.93560184E-03 -0.13907757E-10
    5    1    0.20836434E-03  0.17319505E-11
    6    1   -0.10622670E-02 -0.14373737E-11
    7    1   -0.39489344E-03 -0.13751987E-11
    8    1   -0.80023750E-03  0.10099127E-11
    9    1   -0.61359066E-03  0.45625719E-12
    1    2   -0.90820183E-03 -0.87537998E-11
    2    2   -0.43118210E-02  0.43906549E-11
    3    2    0.22941403E-03 -0.22801612E-11
    4    2   -0.55208149E-02 -0.36443366E-11
    5    2   -0.12373808E-02 -0.43793493E-11
    6    2    0.52050322E-04  0.39619549E-11
    7    2    0.14945536E-02  0.58391139E-11
    8    2   -0.69683751E-03 -0.13572506E-11
    9    2    0.55110316E-03 -0.48184264E-11
    1    3   -0.91439322E-04  0.70092369E-12
    2    3    0.22941404E-03 -0.51898880E-11
    3    3   -0.20859412E-02  0.15736797E-11
    4    3    0.84185024E-04  0.11009051E-11
    5    3   -0.10665035E-02  0.92859921E-12
    6    3   -0.47210113E-03 -0.21831347E-11
    7    3    0.71102914E-03 -0.57376684E-12
    8    3   -0.59783767E-03  0.39585002E-11
    9    3    0.81753547E-03  0.14249045E-11
    1    4    0.93560183E-03 -0.16782863E-10
    2    4   -0.55208149E-02  0.20565516E-11
    3    4    0.84185037E-04  0.59579878E-11
    4    4    0.18806002E-02 -0.47901623E-11
    5    4   -0.14623930E-02  0.82774152E-11
    6    4   -0.69158813E-03  0.46243153E-12
    7    4   -0.45822953E-03 -0.43380230E-13
    8    4   -0.74382277E-03  0.55851695E-11
    9    4   -0.10140713E-03  0.65745603E-11
    1    5    0.20836434E-03  0.14670441E-11
    2    5    0.12373808E-02  0.75523268E-12
    3    5    0.10665035E-02 -0.13844707E-11
    4    5    0.14623930E-02  0.32955392E-11
    5    5    0.23086573E-03  0.12783441E-11
    6    5   -0.16347861E-03 -0.84929730E-12
    7    5   -0.89389108E-03  0.32723512E-13
    8    5    0.80136618E-03 -0.29460633E-12
    9    5    0.23074843E-03 -0.15525611E-12
    1    6   -0.10622670E-02 -0.68040855E-12
    2    6   -0.52050324E-04 -0.30992995E-11
    3    6    0.47210113E-03  0.36942411E-12
    4    6    0.69158813E-03  0.16352393E-12
    5    6   -0.16347861E-03 -0.16312505E-12
    6    6   -0.53085942E-03  0.15804767E-11
    7    6    0.28827512E-03  0.35445133E-13
    8    6    0.20931036E-03  0.56328345E-12
    9    6   -0.71096441E-03  0.47826045E-12
    1    7   -0.39489344E-03 -0.10538777E-11
    2    7   -0.14945536E-02  0.48144214E-11
    3    7   -0.71102915E-03  0.10196889E-12
    4    7    0.45822954E-03 -0.17743342E-11
    5    7   -0.89389108E-03 -0.15003503E-12
    6    7    0.28827512E-03  0.16711350E-11
    7    7   -0.13444729E-03 -0.74571073E-12
    8    7   -0.45205582E-04  0.12840391E-11
    9    7   -0.49628722E-04 -0.19606583E-12
    1    8   -0.80023750E-03  0.11090138E-11
    2    8    0.69683750E-03  0.34278985E-11
    3    8    0.59783767E-03 -0.67022464E-11
    4    8    0.74382277E-03  0.59952095E-11
    5    8    0.80136618E-03 -0.46591292E-12
    6    8    0.20931036E-03  0.10788563E-11
    7    8   -0.45205583E-04  0.69523100E-12
    8    8   -0.16487890E-03  0.25510950E-12
    9    8    0.30541011E-03 -0.55818471E-12
    1    9   -0.61359066E-03  0.29550374E-11
    2    9   -0.55110316E-03 -0.55866910E-12
    3    9   -0.81753547E-03  0.78278703E-12
    4    9    0.10140714E-03  0.10738058E-10
    5    9    0.23074843E-03 -0.44164617E-12
    6    9   -0.71096441E-03 -0.32601560E-12
    7    9   -0.49628722E-04 -0.33140637E-12
    8    9    0.30541011E-03 -0.87639138E-12
    9    9    0.28209717E-03 -0.44511119E-12

   -3   -4   -1
    1    1    0.18724716E-03 -0.36316089E-12
    2    1   -0.37172268E-03  0.10240177E-11
    3    1    0.31416872E-03 -0.26620208E-11
    4    1   -0.35532848E-03 -0.17009137E-11
    5    1    0.39210930E-03 -0.43927535E-12
    6    1    0.80583799E-04 -0.78619923E-12
    7    1   -0.81952906E-04 -0.34060428E-12
    8    1    0.20738977E-03  0.22185810E-11
    9    1   -0.58405472E-03 -0.82241939E-13
    1    2    0.37172268E-03  0.49943036E-12
    2    2   -0.34994011E-02  0.38595030E-11
    3    2   -0.35015909E-02 -0.39283316E-11
    4    2    0.24574274E-02  0.17279268E-11
    5    2    0.14516147E-02 -0.17926546E-12
    6    2   -0.21042401E-02  0.93666394E-13
    7    2    0.14816813E-02 -0.69345397E-12
    8    2    0.53260520E-05  0.16618621E-11
    9    2   -0.20277685E-04  0.58314784E-11
    1    3   -0.31416872E-03  0.22659053E-11
    2    3   -0.35015909E-02 -0.58528859E-11
    3    3   -0.56130762E-02  0.54061755E-11
    4    3   -0.31289205E-02 -0.10184553E-11
    5    3    0.54620423E-03  0.88759469E-12
    6    3    0.23983411E-02 -0.36091859E-11
    7    3   -0.24325204E-03  0.16997975E-11
    8    3   -0.14889802E-02  0.11672434E-11
    9    3    0.57140146E-03 -0.12510349E-12
    1    4    0.35532848E-03 -0.69840488E-12
    2    4    0.24574274E-02 -0.34490327E-11
    3    4   -0.31289205E-02 -0.12011286E-11
    4    4   -0.79384003E-02 -0.18082202E-11
    5    4   -0.40060480E-03  0.31950718E-11
    6    4   -0.16283567E-03  0.24374412E-11
    7    4    0.22684454E-02 -0.20884926E-11
    8    4   -0.14101267E-02  0.95545447E-12
    9    4   -0.12259487E-02  0.12933847E-11
    1    5    0.39210930E-03  0.91647089E-12
    2    5   -0.14516147E-02 -0.15421648E-11
    3    5   -0.54620423E-03  0.98947760E-13
    4    5    0.40060480E-03 -0.76624210E-12
    5    5   -0.13536243E-02  0.68059447E-12
    6    5   -0.30667014E-03 -0.20667907E-12
    7    5    0.21656173E-03 -0.42499598E-12
    8    5    0.20283355E-03 -0.38947221E-12
    9    5   -0.56982080E-03 -0.29810835E-12
    1    6    0.80583797E-04 -0.71002405E-12
    2    6    0.21042401E-02  0.32962487E-11
    3    6   -0.23983411E-02 -0.12932793E-11
    4    6    0.16283567E-03  0.45521180E-11
    5    6   -0.30667014E-03 -0.20146645E-14
    6    6   -0.19822147E-03 -0.20898561E-12
    7    6    0.79248460E-04  0.10679914E-11
    8    6   -0.28331633E-03 -0.46555208E-13
    9    6    0.47060337E-03  0.12853376E-11
    1    7   -0.81952905E-04 -0.13473632E-11
    2    7   -0.14816813E-02  0.26456554E-11
    3    7    0.24325204E-03 -0.22686822E-11
    4    7   -0.22684454E-02 -0.13534660E-11
    5    7    0.21656173E-03  0.10996065E-12
    6    7    0.79248460E-04  0.62645744E-13
    7    7   -0.14538799E-03 -0.48206578E-12
    8    7   -0.18297612E-04  0.46626928E-13
    9    7   -0.40273858E-03  0.52833833E-12
    1    8    0.20738978E-03 -0.14170416E-11
    2    8   -0.53260506E-05 -0.10363660E-11
    3    8    0.14889802E-02 -0.59926890E-12
    4    8    0.14101267E-02 -0.19825530E-11
    5    8    0.20283355E-03 -0.24375823E-12
    6    8   -0.28331633E-03  0.27530278E-12
    7    8   -0.18297613E-04 -0.14474478E-13
    8    8   -0.11273185E-03  0.11658782E-11
    9    8    0.18056313E-03  0.50987296E-12
    1    9   -0.58405472E-03  0.52024444E-12
    2    9    0.20277688E-04 -0.63366345E-11
    3    9   -0.57140146E-03  0.11523035E-11
    4    9    0.12259487E-02  0.34113918E-11
    5    9   -0.56982080E-03 -0.70860865E-12
    6    9    0.47060337E-03  0.75506317E-12
    7    9   -0.40273858E-03  0.22882325E-12
    8    9    0.18056313E-03  0.94375332E-12
    9    9   -0.57708518E-03 -0.93927643E-12

   -3   -3   -3
    1    1    0.17324738E-02 -0.52019091E-15
    2    1    0.11879457E-11 -0.36985172E-11
    3    1    0.87800717E-11  0.61018898E-13
    4    1   -0.32408255E-12  0.33006479E-11
    5    1   -0.53073104E-04  0.22788887E-11
    6    1    0.24503974E-04 -0.14393199E-11
    7    1    0.91976032E-06  0.18693629E-11
    8    1   -0.27440287E-04 -0.15182511E-11
    9    1    0.64602837E-04 -0.27196267E-12
    1    2    0.13098436E-11  0.36985172E-11
    2    2    0.27234459E-02 -0.10875747E-14
    3    2    0.22020006E-02 -0.20985129E-11
    4    2    0.31961017E-02  0.73530164E-11
    5    2    0.78150682E-12 -0.20077880E-11
    6    2   -0.72456189E-12  0.94351176E-12
    7    2    0.72375021E-13  0.11462064E-11
    8    2   -0.37591271E-11 -0.39503946E-11
    9    2   -0.42557313E-11 -0.35481374E-11
    1    3    0.88313350E-11 -0.61018898E-13
    2    3    0.22020006E-02  0.20985018E-11
    3    3   -0.25833041E-02 -0.52123859E-15
    4    3    0.11696195E-02  0.35413844E-11
    5    3    0.34395343E-11  0.11284723E-11
    6    3    0.80556039E-13  0.13261354E-12
    7    3    0.48513049E-11  0.31612724E-11
    8    3   -0.19548589E-12  0.36736482E-11
    9    3   -0.22736381E-11  0.71455515E-12
    1    4   -0.25169692E-12 -0.33006479E-11
    2    4    0.31961017E-02 -0.73530318E-11
    3    4    0.11696195E-02 -0.35418182E-11
    4    4   -0.17163472E-02 -0.71749681E-15
    5    4   -0.43565798E-12 -0.11766595E-11
    6    4    0.10498054E-11  0.17698883E-11
    7    4    0.69670103E-12  0.30005425E-11
    8    4   -0.94563124E-12 -0.47775447E-11
    9    4   -0.57719361E-12 -0.11654063E-11
    1    5   -0.53073104E-04 -0.22786955E-11
    2    5    0.75378648E-12  0.20077880E-11
    3    5    0.34816772E-11 -0.11284723E-11
    4    5   -0.37600020E-12  0.11766595E-11
    5    5   -0.98493432E-03 -0.18451935E-15
    6    5   -0.11306187E-02 -0.19779220E-12
    7    5   -0.16093445E-02 -0.34655530E-12
    8    5    0.49614546E-04  0.46907078E-12
    9    5   -0.14112502E-03 -0.58950300E-12
    1    6    0.24503974E-04  0.14393247E-11
    2    6   -0.69966032E-12 -0.94351176E-12
    3    6    0.20053103E-13 -0.13261354E-12
    4    6    0.10934736E-11 -0.17698883E-11
    5    6   -0.11306187E-02  0.19779678E-12
    6    6   -0.16218830E-02 -0.15235625E-15
    7    6   -0.68602278E-03 -0.16866301E-12
    8    6    0.41502088E-03  0.26967984E-12
    9    6   -0.33498499E-03  0.51254353E-12
    1    7    0.91976032E-06 -0.18693561E-11
    2    7    0.10677830E-12 -0.11462064E-11
    3    7    0.48952221E-11 -0.31612724E-11
    4    7    0.66778415E-12 -0.30005425E-11
    5    7   -0.16093445E-02  0.34656177E-12
    6    7   -0.68602278E-03  0.16869721E-12
    7    7   -0.21157245E-02 -0.14459148E-15
    8    7    0.27512161E-04  0.69269033E-13
    9    7   -0.67509395E-03  0.32837275E-12
    1    8   -0.27440287E-04  0.15181906E-11
    2    8   -0.37741122E-11  0.39503946E-11
    3    8   -0.22061950E-12 -0.36736482E-11
    4    8   -0.91003658E-12  0.47775447E-11
    5    8    0.49614546E-04 -0.46906508E-12
    6    8    0.41502088E-03 -0.26968509E-12
    7    8    0.27512161E-04 -0.69265073E-13
    8    8    0.11859261E-03 -0.20875582E-15
    9    8    0.51510450E-03 -0.87574072E-12
    1    9    0.64602837E-04  0.27213620E-12
    2    9   -0.42113688E-11  0.35481374E-11
    3    9   -0.23080776E-11 -0.71455515E-12
    4    9   -0.60211764E-12  0.11654063E-11
    5    9   -0.14112502E-03  0.58948600E-12
    6    9   -0.33498499E-03 -0.51254578E-12
    7    9   -0.67509395E-03 -0.32837193E-12
    8    9    0.51510450E-03  0.87569468E-12
    9    9   -0.11524512E-02 -0.14087082E-15

   -3   -3   -2
    1    1   -0.23266594E-02  0.38624590E-11
    2    1   -0.20883320E-02  0.33582859E-12
    3    1   -0.19804418E-03  0.15338451E-11
    4    1   -0.18088990E-03 -0.32767365E-12
    5    1   -0.41128388E-03 -0.43967703E-11
    6    1   -0.10937210E-02  0.47946404E-11
    7    1   -0.15395324E-02  0.31562756E-11
    8    1   -0.14115902E-03 -0.11847600E-11
    9    1    0.41536953E-03  0.18201820E-11
    1    2    0.20883320E-02  0.30686183E-11
    2    2    0.71303308E-02  0.46230866E-11
    3    2   -0.11672842E-02  0.31019614E-11
    4    2   -0.16118447E-02  0.53616486E-12
    5    2   -0.11617176E-02 -0.66178053E-12
    6    2    0.31791408E-03 -0.16613187E-12
    7    2    0.45660167E-03  0.60489131E-11
    8    2   -0.41200147E-03 -0.26141356E-11
    9    2    0.11374362E-02  0.47346269E-11
    1    3    0.19804418E-03  0.22149964E-11
    2    3   -0.11672842E-02 -0.58264157E-12
    3    3    0.36435670E-03 -0.68726275E-11
    4    3   -0.20153960E-02  0.38606531E-12
    5    3   -0.14668372E-02 -0.25982688E-13
    6    3    0.10377611E-02 -0.17210556E-11
    7    3   -0.29339581E-02 -0.14777469E-11
    8    3    0.11726320E-02 -0.37128842E-11
    9    3   -0.86332272E-03 -0.69855870E-11
    1    4    0.18088989E-03  0.66121414E-12
    2    4   -0.16118447E-02 -0.54965407E-11
    3    4   -0.20153960E-02  0.55112312E-11
    4    4   -0.96477105E-03 -0.80357110E-11
    5    4   -0.21236653E-02 -0.78589123E-11
    6    4   -0.29640968E-02  0.47092333E-11
    7    4   -0.11040214E-02  0.33754544E-11
    8    4    0.88360450E-05  0.13205435E-11
    9    4   -0.17870917E-02  0.61235973E-11
    1    5   -0.41128388E-03  0.47878802E-12
    2    5    0.11617175E-02 -0.17668488E-11
    3    5    0.14668372E-02  0.54356597E-11
    4    5    0.21236653E-02  0.69045351E-11
    5    5   -0.20732366E-02  0.20130911E-11
    6    5    0.14683253E-04 -0.39856161E-12
    7    5    0.20889518E-04  0.11313823E-11
    8    5    0.13381372E-03 -0.17296656E-11
    9    5   -0.37105521E-03  0.21048844E-11
    1    6   -0.10937210E-02  0.22471677E-11
    2    6   -0.31791407E-03 -0.11775901E-11
    3    6   -0.10377611E-02  0.33664287E-11
    4    6    0.29640968E-02 -0.84700909E-12
    5    6    0.14683252E-04  0.97737140E-13
    6    6    0.52728803E-03  0.81784579E-12
    7    6   -0.14702859E-03  0.15544569E-11
    8    6   -0.10108012E-03 -0.60410010E-13
    9    6   -0.32985542E-03 -0.98986281E-12
    1    7   -0.15395324E-02  0.38614355E-11
    2    7   -0.45660168E-03 -0.34699387E-11
    3    7    0.29339581E-02  0.14394156E-11
    4    7    0.11040214E-02 -0.28665750E-11
    5    7    0.20889518E-04  0.12703857E-11
    6    7   -0.14702859E-03  0.53820566E-12
    7    7    0.42846977E-03  0.18229758E-11
    8    7    0.27463725E-03 -0.13688566E-11
    9    7   -0.31283913E-03  0.72903586E-12
    1    8   -0.14115902E-03  0.65233517E-12
    2    8    0.41200146E-03 -0.40108753E-12
    3    8   -0.11726320E-02  0.62383657E-11
    4    8   -0.88360448E-05 -0.41966821E-11
    5    8    0.13381372E-03 -0.38195411E-12
    6    8   -0.10108011E-03  0.42998851E-12
    7    8    0.27463725E-03 -0.15871033E-11
    8    8   -0.39472941E-03 -0.22229805E-11
    9    8   -0.34847239E-03 -0.12650493E-11
    1    9    0.41536953E-03 -0.79489323E-12
    2    9   -0.11374362E-02 -0.92134350E-11
    3    9    0.86332272E-03  0.25771828E-11
    4    9    0.17870917E-02  0.92018840E-12
    5    9   -0.37105521E-03  0.11567863E-11
    6    9   -0.32985542E-03  0.66285795E-12
    7    9   -0.31283912E-03  0.86013293E-12
    8    9   -0.34847239E-03 -0.12981586E-13
    9    9    0.49331652E-03 -0.13147608E-11

   -3   -3   -1
    1    1   -0.49441502E-02  0.82388957E-12
    2    1    0.26942341E-02 -0.35127977E-12
    3    1    0.12669154E-02  0.75573202E-11
    4    1    0.17485629E-02  0.47548424E-12
    5    1   -0.12778822E-02  0.91642232E-12
    6    1    0.25559977E-03  0.19364198E-12
    7    1    0.41788625E-03 -0.16651307E-11
    8    1    0.87094691E-05  0.19726649E-11
    9    1   -0.88102855E-04 -0.50802114E-11
    1    2   -0.26942341E-02  0.16045030E-11
    2    2    0.97833831E-02 -0.45466686E-11
    3    2    0.97571289E-03  0.29579204E-11
    4    2    0.13711917E-02  0.72199191E-11
    5    2   -0.49689729E-03  0.15996952E-11
    6    2   -0.34400719E-03  0.92236071E-12
    7    2   -0.49839982E-03 -0.22286721E-11
    8    2   -0.22992753E-03  0.45600214E-11
    9    2    0.72212989E-03 -0.40542543E-11
    1    3   -0.12669154E-02  0.42267847E-11
    2    3    0.97571290E-03  0.43491200E-11
    3    3    0.17011594E-02 -0.87346796E-13
    4    3    0.47621519E-02 -0.72685937E-11
    5    3    0.12205944E-02 -0.16775227E-11
    6    3   -0.23505513E-02 -0.15439512E-11
    7    3    0.24952820E-02  0.26385828E-11
    8    3   -0.99736325E-03  0.53791728E-11
    9    3    0.69834855E-03 -0.31680279E-11
    1    4   -0.17485629E-02  0.24937691E-12
    2    4    0.13711917E-02  0.28615756E-11
    3    4    0.47621519E-02 -0.29429350E-11
    4    4    0.52506878E-02  0.17426338E-12
    5    4    0.17419026E-02  0.50809600E-11
    6    4    0.24726204E-02 -0.54869646E-11
    7    4   -0.54587504E-03 -0.80400339E-11
    8    4    0.15802984E-04  0.16868529E-11
    9    4    0.15199108E-02 -0.17179799E-11
    1    5   -0.12778822E-02  0.84880020E-14
    2    5    0.49689729E-03 -0.82194113E-11
    3    5   -0.12205944E-02 -0.24700433E-11
    4    5   -0.17419026E-02 -0.31329817E-11
    5    5    0.10716173E-02 -0.56344512E-12
    6    5    0.26448348E-03  0.14059643E-11
    7    5    0.36131010E-03  0.72469981E-12
    8    5    0.46868054E-03  0.86343965E-12
    9    5   -0.12755933E-02 -0.21445112E-12
    1    6    0.25559977E-03  0.99366695E-12
    2    6    0.34400719E-03  0.14959305E-11
    3    6    0.23505513E-02 -0.16943261E-12
    4    6   -0.24726204E-02  0.40302230E-11
    5    6    0.26448348E-03 -0.20123660E-13
    6    6    0.86419471E-03  0.72291131E-12
    7    6   -0.10550983E-04 -0.47195754E-12
    8    6   -0.55558279E-03  0.19583814E-12
    9    6    0.54580484E-03 -0.71423615E-12
    1    7    0.41788625E-03 -0.54406913E-12
    2    7    0.49839982E-03 -0.54239894E-11
    3    7   -0.24952820E-02 -0.80700854E-12
    4    7    0.54587504E-03  0.52188722E-11
    5    7    0.36131010E-03  0.14977811E-11
    6    7   -0.10550982E-04  0.43280093E-12
    7    7    0.85739341E-03  0.28365504E-12
    8    7   -0.92554362E-04  0.40371618E-12
    9    7    0.99634634E-03  0.49190057E-12
    1    8    0.87094722E-05  0.28606512E-11
    2    8    0.22992753E-03 -0.28935353E-11
    3    8    0.99736325E-03  0.11722488E-10
    4    8   -0.15802984E-04 -0.27338982E-12
    5    8    0.46868054E-03  0.49320800E-12
    6    8   -0.55558279E-03  0.30735419E-12
    7    8   -0.92554362E-04  0.80800834E-12
    8    8   -0.42780944E-03 -0.66254814E-12
    9    8   -0.44263219E-03 -0.18571063E-11
    1    9   -0.88102850E-04 -0.48108527E-11
    2    9   -0.72212989E-03  0.84552571E-11
    3    9   -0.69834856E-03  0.70149875E-12
    4    9   -0.15199108E-02  0.15706629E-11
    5    9   -0.12755933E-02 -0.95421273E-12
    6    9    0.54580484E-03  0.40395497E-12
    7    9    0.99634635E-03  0.12003097E-11
    8    9   -0.44263219E-03 -0.15511078E-11
    9    9    0.66383352E-03  0.12871822E-11

   -3   -3    0
    1    1    0.81143435E-02  0.42386848E-15
    2    1    0.64183348E-11 -0.11567795E-11
    3    1    0.12739314E-11  0.63016068E-11
    4    1    0.21151697E-11  0.86279907E-11
    5    1    0.54703301E-03  0.15644077E-11
    6    1   -0.23757487E-08 -0.12288126E-11
    7    1   -0.14243316E-08  0.90316535E-12
    8    1    0.32168550E-03 -0.15114333E-11
    9    1   -0.10232021E-02 -0.47889880E-12
    1    2    0.64183350E-11  0.11567795E-11
    2    2   -0.46674769E-02  0.55182325E-15
    3    2   -0.12770035E-07 -0.71557743E-11
    4    2   -0.96208758E-09 -0.40648178E-11
    5    2    0.48040969E-11  0.13733979E-12
    6    2    0.12724047E-11  0.21969622E-11
    7    2    0.98237535E-12  0.82715952E-12
    8    2    0.47272716E-12  0.55339842E-12
    9    2   -0.14121732E-11 -0.90589889E-11
    1    3    0.12668985E-11 -0.63016068E-11
    2    3   -0.12770035E-07  0.71557743E-11
    3    3   -0.39010211E-03  0.36406653E-15
    4    3    0.63422744E-02 -0.18564792E-11
    5    3    0.58320687E-12  0.54829752E-12
    6    3    0.80074974E-13 -0.18360756E-11
    7    3   -0.37754319E-11 -0.43379717E-11
    8    3    0.33153686E-12 -0.17209602E-11
    9    3    0.19963230E-11  0.33981516E-11
    1    4    0.21020028E-11 -0.86279907E-11
    2    4   -0.96208758E-09  0.40648178E-11
    3    4    0.63422744E-02  0.18566335E-11
    4    4    0.41823594E-02  0.42014368E-15
    5    4   -0.14250885E-11  0.23717452E-11
    6    4    0.25287788E-11 -0.27627295E-11
    7    4    0.62687000E-12 -0.36001948E-11
    8    4    0.10547056E-11 -0.39434445E-11
    9    4   -0.25368043E-11  0.41581755E-11
    1    5    0.54703301E-03 -0.15644728E-11
    2    5    0.48040970E-11 -0.13733979E-12
    3    5    0.63114260E-12 -0.54829752E-12
    4    5   -0.13558978E-11 -0.23717452E-11
    5    5    0.19068738E-02  0.11396536E-15
    6    5    0.28875490E-09  0.31225532E-13
    7    5   -0.90535891E-09  0.88514487E-12
    8    5   -0.76558633E-03 -0.35354848E-12
    9    5    0.21379367E-02  0.25160623E-13
    1    6   -0.23757487E-08  0.12288126E-11
    2    6    0.12870675E-11 -0.21969622E-11
    3    6    0.80075033E-13  0.18360756E-11
    4    6    0.25287788E-11  0.27627295E-11
    5    6    0.28875490E-09 -0.31225532E-13
    6    6   -0.15702007E-02  0.83976138E-16
    7    6    0.10590609E-02  0.67371980E-12
    8    6    0.12033377E-08  0.25805800E-12
    9    6    0.39304802E-09  0.14707916E-12
    1    7   -0.14243316E-08 -0.90316535E-12
    2    7    0.10036690E-11 -0.82715952E-12
    3    7   -0.37754318E-11  0.43379717E-11
    4    7    0.62687015E-12  0.36001948E-11
    5    7   -0.90535891E-09 -0.88514487E-12
    6    7    0.10590609E-02 -0.67369861E-12
    7    7   -0.81966171E-03  0.98977740E-16
    8    7   -0.56567472E-10  0.37160958E-12
    9    7   -0.58507636E-09  0.28564124E-12
    1    8    0.32168550E-03  0.15114561E-11
    2    8    0.47272719E-12 -0.55339842E-12
    3    8    0.34194473E-12  0.17209602E-11
    4    8    0.10335117E-11  0.39434445E-11
    5    8   -0.76558633E-03  0.35353671E-12
    6    8    0.12033377E-08 -0.25805800E-12
    7    8   -0.56567472E-10 -0.37160958E-12
    8    8   -0.15989077E-03  0.14015418E-15
    9    8    0.24065859E-03  0.58733788E-12
    1    9   -0.10232021E-02  0.47883158E-12
    2    9   -0.14121732E-11  0.90589889E-11
    3    9    0.20193211E-11 -0.33981516E-11
    4    9   -0.25145076E-11 -0.41581755E-11
    5    9    0.21379367E-02 -0.25127103E-13
    6    9    0.39304802E-09 -0.14707916E-12
    7    9   -0.58507636E-09 -0.28564124E-12
    8    9    0.24065859E-03 -0.58730577E-12
    9    9   -0.67355276E-03  0.91327307E-16

   -3   -2   -3
    1    1   -0.18864414E-02  0.50145513E-11
    2    1   -0.13725579E-02  0.34667859E-11
    3    1   -0.40405655E-03  0.78144696E-12
    4    1   -0.18512733E-02 -0.83090132E-12
    5    1   -0.95193737E-03  0.23943850E-11
    6    1   -0.92086300E-04 -0.24122969E-11
    7    1   -0.10397718E-02 -0.52967266E-12
    8    1   -0.50982383E-03  0.15797537E-11
    9    1   -0.10938216E-02  0.23554752E-11
    1    2    0.13725579E-02  0.79873608E-13
    2    2   -0.64627101E-03 -0.22625860E-11
    3    2   -0.24706524E-02  0.32718047E-11
    4    2    0.24765774E-02  0.12027324E-11
    5    2   -0.40774364E-04 -0.12228395E-11
    6    2   -0.19302403E-02  0.14950784E-11
    7    2   -0.21825889E-02 -0.11056217E-11
    8    2    0.11451057E-02  0.36259893E-11
    9    2   -0.15891880E-02 -0.67521471E-12
    1    3    0.40405655E-03  0.17807275E-11
    2    3   -0.24706524E-02 -0.55385193E-11
    3    3    0.28793939E-03 -0.54589666E-11
    4    3   -0.21845883E-03  0.11152029E-10
    5    3   -0.27537529E-02  0.12397991E-10
    6    3   -0.24820470E-03 -0.46272656E-11
    7    3   -0.20936344E-02 -0.42089450E-11
    8    3    0.39617698E-03 -0.10239778E-11
    9    3    0.13236087E-02 -0.52845428E-11
    1    4    0.18512733E-02 -0.15332249E-11
    2    4    0.24765774E-02 -0.43621530E-11
    3    4   -0.21845882E-03  0.32645726E-11
    4    4    0.64988828E-02 -0.32818331E-11
    5    4    0.94519460E-03  0.60769246E-11
    6    4    0.25490225E-02  0.33346291E-12
    7    4    0.22699467E-03  0.74177687E-11
    8    4    0.19319225E-03 -0.57463877E-11
    9    4    0.56006383E-03  0.10859495E-11
    1    5   -0.95193737E-03  0.32191784E-11
    2    5    0.40774362E-04  0.23531316E-11
    3    5    0.27537529E-02 -0.80359946E-11
    4    5   -0.94519461E-03 -0.13567298E-11
    5    5   -0.22614372E-03 -0.16101703E-13
    6    5    0.17454508E-05  0.53053655E-12
    7    5    0.41707351E-03  0.17237487E-11
    8    5    0.19978395E-03  0.12513711E-11
    9    5   -0.51318051E-04  0.30606228E-12
    1    6   -0.92086301E-04 -0.31797863E-11
    2    6    0.19302403E-02 -0.72433205E-12
    3    6    0.24820470E-03  0.50649446E-11
    4    6   -0.25490225E-02 -0.91855749E-12
    5    6    0.17454507E-05  0.42348937E-12
    6    6    0.20031091E-03  0.89973168E-13
    7    6   -0.54787598E-03  0.15809025E-11
    8    6   -0.19045384E-03 -0.72910818E-12
    9    6   -0.15733092E-03  0.63689269E-12
    1    7   -0.10397718E-02  0.11630827E-11
    2    7    0.21825889E-02 -0.17279060E-12
    3    7    0.20936344E-02  0.95234687E-11
    4    7   -0.22699467E-03 -0.15439256E-11
    5    7    0.41707351E-03  0.15676800E-11
    6    7   -0.54787598E-03  0.16520152E-11
    7    7   -0.90223959E-03  0.68659314E-12
    8    7    0.11557834E-02 -0.32087895E-11
    9    7    0.18314295E-03 -0.13950646E-13
    1    8   -0.50982384E-03  0.17596406E-11
    2    8   -0.11451057E-02 -0.39055328E-11
    3    8   -0.39617698E-03  0.53039344E-12
    4    8   -0.19319225E-03  0.52365560E-11
    5    8    0.19978395E-03  0.16906125E-11
    6    8   -0.19045384E-03 -0.13867744E-11
    7    8    0.11557834E-02 -0.16573786E-11
    8    8   -0.92691000E-03 -0.82950660E-12
    9    8   -0.56518916E-04  0.31533435E-12
    1    9   -0.10938216E-02  0.27794429E-11
    2    9    0.15891880E-02 -0.20839330E-11
    3    9   -0.13236087E-02  0.17045926E-11
    4    9   -0.56006383E-03  0.12128783E-11
    5    9   -0.51318050E-04 -0.74636789E-12
    6    9   -0.15733092E-03 -0.98670258E-14
    7    9    0.18314294E-03 -0.82957198E-12
    8    9   -0.56518917E-04  0.11412577E-11
    9    9    0.78521434E-03  0.12454968E-12

   -3   -2   -2
    1    1    0.94061279E-02  0.20593804E-11
    2    1   -0.31611897E-02 -0.94509470E-13
    3    1    0.97257760E-03  0.44028678E-11
    4    1   -0.18810885E-02 -0.50438525E-11
    5    1    0.16408732E-02  0.21652489E-11
    6    1    0.28490080E-02  0.25203112E-11
    7    1    0.24208910E-02  0.21269618E-12
    8    1    0.14001192E-04 -0.16394093E-11
    9    1    0.16326760E-02 -0.16148632E-11
    1    2    0.31611897E-02 -0.33298694E-11
    2    2   -0.60318543E-02 -0.22892244E-11
    3    2   -0.33576661E-02 -0.31175063E-12
    4    2    0.10371362E-02  0.62440886E-11
    5    2   -0.42650361E-03 -0.19565313E-11
    6    2    0.40855072E-02 -0.34899124E-12
    7    2   -0.36167383E-03 -0.89920172E-12
    8    2    0.65687202E-04  0.55214713E-11
    9    2    0.98653590E-03 -0.11962013E-11
    1    3   -0.97257760E-03 -0.28724505E-12
    2    3   -0.33576661E-02 -0.36976915E-11
    3    3   -0.16489166E-02  0.24375391E-10
    4    3   -0.18156073E-02 -0.48276730E-11
    5    3    0.25069340E-02 -0.20711453E-11
    6    3    0.91931001E-03 -0.32130631E-11
    7    3    0.20110919E-02  0.23012915E-11
    8    3   -0.20075023E-02 -0.16523588E-11
    9    3    0.51275342E-03 -0.52555039E-11
    1    4    0.18810885E-02  0.20797149E-11
    2    4    0.10371362E-02  0.17522452E-10
    3    4   -0.18156073E-02 -0.91339982E-11
    4    4   -0.73624306E-02 -0.96442715E-11
    5    4    0.30371778E-04 -0.35582648E-11
    6    4    0.94606299E-03  0.32560859E-11
    7    4   -0.32012290E-03  0.73505698E-12
    8    4    0.94986423E-04  0.30501617E-11
    9    4    0.29160615E-02  0.35830184E-11
    1    5    0.16408732E-02  0.78911617E-12
    2    5    0.42650362E-03 -0.51825853E-11
    3    5   -0.25069340E-02  0.46226955E-11
    4    5   -0.30371785E-04 -0.19940872E-11
    5    5    0.30314425E-03  0.29034657E-11
    6    5    0.20408061E-02  0.43002060E-12
    7    5    0.13836981E-04 -0.71008303E-13
    8    5    0.15392565E-02 -0.50053632E-11
    9    5    0.50896709E-03 -0.15967842E-11
    1    6    0.28490080E-02 -0.27702667E-11
    2    6   -0.40855072E-02  0.51466240E-11
    3    6   -0.91931000E-03  0.17069033E-11
    4    6   -0.94606299E-03 -0.14450267E-11
    5    6    0.20408061E-02  0.13759176E-12
    6    6    0.63974126E-03  0.14323959E-11
    7    6    0.16903884E-02 -0.79428998E-12
    8    6   -0.59553406E-03  0.11114629E-11
    9    6    0.72818392E-03  0.12415234E-12
    1    7    0.24208910E-02 -0.13164626E-11
    2    7    0.36167383E-03  0.47985574E-12
    3    7   -0.20110919E-02  0.92290863E-11
    4    7    0.32012289E-03 -0.20028241E-11
    5    7    0.13836981E-04 -0.91542355E-12
    6    7    0.16903884E-02  0.10333154E-11
    7    7    0.11014635E-02 -0.11597667E-12
    8    7   -0.10793111E-03  0.15511201E-11
    9    7    0.14335774E-02  0.31278615E-12
    1    8    0.14001189E-04 -0.43323563E-11
    2    8   -0.65687201E-04 -0.46217146E-11
    3    8    0.20075023E-02  0.59365637E-11
    4    8   -0.94986419E-04 -0.19872931E-11
    5    8    0.15392565E-02 -0.30287937E-11
    6    8   -0.59553406E-03  0.21134425E-11
    7    8   -0.10793111E-03  0.28245189E-11
    8    8   -0.15908251E-02  0.38610695E-11
    9    8   -0.75001631E-03  0.82338455E-12
    1    9    0.16326760E-02  0.28365669E-11
    2    9   -0.98653590E-03 -0.33421182E-13
    3    9   -0.51275341E-03  0.32703974E-11
    4    9   -0.29160615E-02 -0.48438276E-11
    5    9    0.50896709E-03 -0.18815816E-11
    6    9    0.72818392E-03  0.12916777E-11
    7    9    0.14335774E-02  0.14196090E-11
    8    9   -0.75001632E-03 -0.30706319E-12
    9    9   -0.22242135E-03 -0.11494104E-11

   -3   -2   -1
    1    1   -0.39206071E-03  0.34005587E-11
    2    1    0.13915619E-02 -0.31916310E-11
    3    1    0.64000135E-02 -0.56652096E-11
    4    1    0.75458460E-02  0.26083753E-11
    5    1   -0.12291248E-02  0.92709354E-12
    6    1    0.87501124E-03  0.44245948E-11
    7    1   -0.83007609E-04  0.27108743E-11
    8    1   -0.34068910E-03  0.32632563E-11
    9    1    0.20684903E-02 -0.71072248E-12
    1    2   -0.13915619E-02  0.42413746E-11
    2    2    0.71888952E-03  0.11450587E-11
    3    2    0.10725230E-01 -0.12789530E-10
    4    2    0.12888028E-02 -0.85566644E-11
    5    2   -0.12474109E-02  0.68875357E-11
    6    2   -0.17399821E-03  0.10681759E-11
    7    2   -0.28040552E-02  0.23317615E-11
    8    2    0.15066229E-03 -0.24481012E-11
    9    2   -0.23724236E-03 -0.29632938E-11
    1    3   -0.64000135E-02  0.44575888E-11
    2    3    0.10725229E-01 -0.38297790E-11
    3    3    0.14331142E-01  0.62825780E-11
    4    3    0.12188681E-01  0.58921108E-11
    5    3    0.10571976E-02 -0.31596219E-11
    6    3    0.21539737E-02  0.15097131E-10
    7    3   -0.23544410E-02  0.64437966E-11
    8    3   -0.23915053E-02  0.83251080E-11
    9    3   -0.78275930E-03  0.21620041E-11
    1    4   -0.75458460E-02 -0.16748443E-11
    2    4    0.12888028E-02 -0.11212376E-11
    3    4    0.12188681E-01 -0.72787244E-11
    4    4    0.78134462E-02  0.98884402E-11
    5    4    0.21566066E-03  0.34852416E-11
    6    4    0.65543678E-03 -0.15118057E-11
    7    4   -0.20729664E-02 -0.66521372E-11
    8    4    0.66438041E-03  0.98667133E-11
    9    4   -0.15360310E-02 -0.11394130E-10
    1    5   -0.12291248E-02  0.12364098E-12
    2    5    0.12474109E-02 -0.32597189E-11
    3    5   -0.10571976E-02 -0.15835163E-11
    4    5   -0.21566066E-03  0.49541794E-12
    5    5    0.14458337E-02 -0.69787539E-12
    6    5   -0.76568947E-03 -0.62814589E-12
    7    5   -0.44524445E-04 -0.73287443E-12
    8    5   -0.11483323E-02  0.19556038E-11
    9    5    0.18081781E-02  0.11792381E-12
    1    6    0.87501124E-03  0.57714815E-11
    2    6    0.17399821E-03 -0.27457021E-11
    3    6   -0.21539737E-02 -0.11692054E-10
    4    6   -0.65543679E-03  0.19229082E-11
    5    6   -0.76568947E-03 -0.46514053E-12
    6    6    0.37832856E-03  0.50411433E-12
    7    6    0.42792573E-03  0.69756930E-12
    8    6   -0.18075146E-03  0.21020832E-11
    9    6    0.13680812E-02  0.45989028E-12
    1    7   -0.83007606E-04  0.38214244E-11
    2    7    0.28040552E-02  0.67433906E-13
    3    7    0.23544410E-02 -0.18354533E-11
    4    7    0.20729664E-02  0.17021645E-11
    5    7   -0.44524445E-04 -0.13223289E-11
    6    7    0.42792572E-03  0.10074802E-11
    7    7   -0.27011534E-03  0.80388410E-12
    8    7   -0.36649965E-03  0.17060203E-11
    9    7   -0.55312167E-04 -0.22013999E-11
    1    8   -0.34068909E-03  0.14699385E-11
    2    8   -0.15066229E-03  0.68566113E-11
    3    8    0.23915053E-02 -0.73968713E-11
    4    8   -0.66438041E-03 -0.48734471E-11
    5    8   -0.11483323E-02 -0.66815717E-12
    6    8   -0.18075146E-03  0.13711412E-11
    7    8   -0.36649965E-03  0.48815098E-12
    8    8   -0.31574180E-03  0.20194235E-11
    9    8    0.10480710E-02  0.27022547E-11
    1    9    0.20684903E-02 -0.36252274E-11
    2    9    0.23724236E-03  0.73909842E-11
    3    9    0.78275930E-03  0.22543946E-11
    4    9    0.15360310E-02  0.50778826E-11
    5    9    0.18081781E-02  0.54099598E-12
    6    9    0.13680812E-02  0.44632536E-12
    7    9   -0.55312169E-04 -0.12672757E-11
    8    9    0.10480710E-02  0.15607199E-13
    9    9   -0.28729756E-03  0.55797976E-12

   -3   -2    0
    1    1   -0.47279574E-02 -0.25901573E-11
    2    1   -0.19556360E-08 -0.41521266E-11
    3    1    0.33572257E-02  0.10100000E-10
    4    1   -0.42957668E-04  0.73541746E-11
    5    1    0.75199247E-03 -0.50834276E-11
    6    1   -0.17811748E-09  0.55660858E-12
    7    1   -0.67591035E-10 -0.31141071E-11
    8    1    0.14192476E-03  0.29540394E-11
    9    1    0.11908545E-02  0.37179795E-11
    1    2    0.19732991E-08 -0.56442143E-11
    2    2   -0.18487030E-02 -0.29960270E-11
    3    2   -0.62943304E-08 -0.30630203E-11
    4    2   -0.58985797E-08 -0.64051958E-11
    5    2   -0.22443736E-08  0.14674633E-11
    6    2   -0.38014968E-02  0.97199419E-12
    7    2    0.16500361E-02  0.17479915E-11
    8    2   -0.70262898E-09 -0.15483053E-11
    9    2   -0.18331251E-08  0.77878441E-11
    1    3   -0.33572257E-02  0.29305421E-11
    2    3   -0.63091653E-08  0.29781108E-11
    3    3    0.10958517E-01  0.31908920E-11
    4    3   -0.71992298E-04  0.84771920E-11
    5    3   -0.17426866E-02 -0.34665456E-11
    6    3    0.14970019E-08  0.67248204E-12
    7    3    0.22816419E-08 -0.29783548E-11
    8    3    0.69744208E-04  0.39362628E-11
    9    3    0.21205172E-03  0.97414438E-12
    1    4    0.42957652E-04 -0.36220714E-11
    2    4   -0.59181464E-08 -0.48446941E-11
    3    4   -0.71992297E-04  0.17975118E-12
    4    4    0.74257431E-02  0.65978334E-11
    5    4   -0.19519932E-02 -0.93210951E-11
    6    4   -0.17980682E-08  0.60523402E-12
    7    4    0.23172027E-08 -0.16110229E-11
    8    4    0.16262482E-02 -0.45794818E-11
    9    4   -0.70604523E-03  0.46982856E-11
    1    5    0.75199247E-03 -0.41384248E-11
    2    5    0.22461563E-08  0.19771606E-11
    3    5    0.17426866E-02  0.72961906E-11
    4    5    0.19519932E-02  0.14945918E-11
    5    5   -0.30199059E-03 -0.54133781E-12
    6    5   -0.14705373E-08 -0.28428453E-12
    7    5   -0.14600537E-08  0.17765954E-12
    8    5   -0.97126919E-03 -0.59637537E-12
    9    5   -0.92942349E-03 -0.57201946E-12
    1    6   -0.18479970E-09  0.85898823E-12
    2    6    0.38014968E-02  0.97872491E-12
    3    6   -0.14981568E-08 -0.76667665E-12
    4    6    0.17940936E-08 -0.49473983E-12
    5    6   -0.14723304E-08 -0.48091197E-12
    6    6   -0.22370798E-04  0.29235989E-12
    7    6   -0.84541605E-03 -0.74266765E-13
    8    6   -0.24355320E-09 -0.30032725E-12
    9    6    0.72829353E-10  0.29381361E-12
    1    7   -0.69256954E-10  0.68045135E-12
    2    7   -0.16500361E-02  0.58923803E-11
    3    7   -0.22815713E-08 -0.19743558E-11
    4    7   -0.23170453E-08  0.28996415E-11
    5    7   -0.14591572E-08 -0.82183696E-12
    6    7   -0.84541605E-03  0.12897602E-11
    7    7    0.28870872E-03  0.38084119E-12
    8    7    0.43202902E-09 -0.19783139E-12
    9    7    0.64497220E-09 -0.18820351E-12
    1    8    0.14192475E-03  0.21304659E-11
    2    8    0.69831242E-09  0.23458910E-12
    3    8   -0.69744210E-04 -0.46650184E-11
    4    8   -0.16262482E-02 -0.16813105E-11
    5    8   -0.97126919E-03  0.13699337E-11
    6    8   -0.24348990E-09 -0.95066446E-12
    7    8    0.43376284E-09 -0.14193225E-11
    8    8    0.88074164E-03  0.25872828E-11
    9    8   -0.27218390E-03  0.14081568E-11
    1    9    0.11908545E-02  0.36538472E-11
    2    9    0.18381059E-08 -0.80322970E-11
    3    9   -0.21205173E-03 -0.24220890E-11
    4    9    0.70604522E-03 -0.63443222E-11
    5    9   -0.92942349E-03  0.79686504E-12
    6    9    0.72802828E-10 -0.49522498E-12
    7    9    0.64391215E-09 -0.78163864E-12
    8    9   -0.27218390E-03  0.48665390E-12
    9    9    0.21676441E-02 -0.60165067E-12

   -3   -1   -4
    1    1    0.56031445E-04 -0.37695541E-12
    2    1   -0.47405259E-03  0.13011120E-11
    3    1    0.29198347E-03 -0.22810651E-11
    4    1   -0.19201864E-03 -0.53750060E-11
    5    1   -0.24614231E-03 -0.40563386E-12
    6    1   -0.48016998E-03  0.95868539E-12
    7    1    0.34818869E-03  0.44641547E-12
    8    1   -0.11991435E-03  0.47135538E-12
    9    1    0.36082616E-03  0.72279552E-12
    1    2    0.47405258E-03  0.13670003E-11
    2    2   -0.46367879E-02 -0.47359269E-11
    3    2   -0.45334365E-02 -0.49901749E-11
    4    2    0.31178313E-02 -0.30555523E-11
    5    2    0.27404822E-02  0.59915527E-12
    6    2   -0.14947872E-02  0.86002386E-12
    7    2    0.10530182E-02  0.28376381E-11
    8    2    0.18059285E-03  0.79601717E-13
    9    2   -0.53442204E-03 -0.86089263E-12
    1    3   -0.29198347E-03 -0.54348652E-11
    2    3   -0.45334365E-02  0.16072040E-11
    3    3   -0.56333901E-02  0.77963191E-11
    4    3   -0.14384649E-02  0.58422685E-11
    5    3    0.75258880E-03 -0.63849100E-13
    6    3    0.17025399E-02 -0.23060252E-11
    7    3   -0.33532357E-03  0.30380218E-12
    8    3   -0.13709461E-02 -0.10657829E-11
    9    3    0.18053413E-02  0.28144574E-11
    1    4    0.19201864E-03 -0.19595957E-12
    2    4    0.31178313E-02  0.12952833E-12
    3    4   -0.14384649E-02 -0.33968306E-11
    4    4   -0.66716595E-02  0.19872576E-11
    5    4   -0.55246206E-03 -0.15898003E-11
    6    4   -0.33145180E-03  0.67389478E-11
    7    4    0.14866517E-02 -0.82937129E-12
    8    4   -0.46149890E-03  0.14164850E-11
    9    4   -0.17477004E-02  0.84722073E-12
    1    5   -0.24614231E-03 -0.11252501E-11
    2    5   -0.27404822E-02 -0.11545686E-11
    3    5   -0.75258880E-03  0.77836435E-12
    4    5    0.55246207E-03  0.44233809E-11
    5    5   -0.12521801E-03  0.46748022E-12
    6    5   -0.16200108E-03  0.42533468E-13
    7    5    0.11209386E-03 -0.36022964E-12
    8    5   -0.15385637E-03 -0.18771585E-12
    9    5    0.42706330E-03  0.20489033E-12
    1    6   -0.48016998E-03 -0.50752978E-12
    2    6    0.14947872E-02  0.16616604E-11
    3    6   -0.17025399E-02 -0.10543506E-11
    4    6    0.33145180E-03  0.82821185E-12
    5    6   -0.16200108E-03 -0.25250960E-12
    6    6   -0.81402611E-04  0.43945056E-12
    7    6   -0.62222695E-03  0.58238180E-12
    8    6    0.29885955E-03  0.15465515E-12
    9    6    0.40927515E-03  0.38197689E-12
    1    7    0.34818869E-03  0.32600832E-12
    2    7   -0.10530182E-02  0.86901406E-12
    3    7    0.33532357E-03 -0.20064623E-11
    4    7   -0.14866517E-02 -0.40722113E-11
    5    7    0.11209386E-03 -0.54104724E-12
    6    7   -0.62222695E-03 -0.80913249E-13
    7    7   -0.52111850E-03 -0.43927362E-12
    8    7    0.63062297E-03 -0.53653533E-12
    9    7    0.48087077E-05 -0.28353177E-12
    1    8   -0.11991435E-03  0.92023199E-12
    2    8   -0.18059285E-03  0.12306613E-11
    3    8    0.13709461E-02  0.62259226E-14
    4    8    0.46149890E-03  0.14349234E-11
    5    8   -0.15385637E-03 -0.98885363E-12
    6    8    0.29885955E-03  0.21148578E-12
    7    8    0.63062297E-03  0.92291300E-13
    8    8   -0.93710014E-03 -0.45324682E-12
    9    8   -0.10028118E-03 -0.36535271E-12
    1    9    0.36082616E-03 -0.17705043E-11
    2    9    0.53442205E-03 -0.18803454E-11
    3    9   -0.18053413E-02  0.37399988E-12
    4    9    0.17477004E-02  0.40159620E-11
    5    9    0.42706330E-03  0.29917808E-12
    6    9    0.40927515E-03  0.21999617E-12
    7    9    0.48087076E-05  0.58316199E-13
    8    9   -0.10028118E-03 -0.56519004E-12
    9    9   -0.70001953E-03 -0.12487303E-11

   -3   -1   -3
    1    1   -0.48270866E-02 -0.12198506E-11
    2    1    0.28291826E-02 -0.28629894E-11
    3    1    0.12742741E-02  0.31831855E-11
    4    1    0.14728048E-02 -0.19926141E-10
    5    1    0.42862591E-03 -0.94077784E-12
    6    1    0.37623861E-04 -0.23305325E-11
    7    1   -0.73547859E-03 -0.11263377E-11
    8    1    0.96593140E-03  0.10811011E-11
    9    1    0.33295198E-03  0.31797178E-11
    1    2   -0.28291826E-02 -0.12506506E-11
    2    2    0.74796989E-02  0.20022595E-11
    3    2    0.45194896E-02 -0.75149800E-11
    4    2    0.27754183E-02 -0.63489769E-11
    5    2   -0.70761958E-03 -0.21680687E-11
    6    2    0.24318256E-02 -0.99729556E-12
    7    2    0.45951699E-03  0.15885574E-11
    8    2   -0.11900269E-02  0.22096888E-11
    9    2    0.90062444E-03  0.32938821E-11
    1    3   -0.12742741E-02 -0.26535831E-11
    2    3    0.45194896E-02  0.23659564E-11
    3    3    0.17716637E-02  0.44162174E-11
    4    3   -0.16726340E-02  0.20628804E-10
    5    3    0.23264843E-02 -0.77515078E-12
    6    3   -0.54657707E-03 -0.40112987E-11
    7    3    0.17390556E-02 -0.62354825E-12
    8    3   -0.36334615E-03  0.34864472E-13
    9    3   -0.23596131E-02 -0.63607583E-12
    1    4   -0.14728048E-02 -0.16931659E-10
    2    4    0.27754183E-02  0.11862764E-10
    3    4   -0.16726340E-02 -0.16771006E-10
    4    4    0.73493350E-02 -0.18487989E-11
    5    4    0.16757537E-03  0.15815076E-10
    6    4   -0.90233513E-03 -0.37270737E-11
    7    4   -0.10784163E-02  0.22866934E-11
    8    4    0.68725613E-03  0.11274597E-10
    9    4   -0.12450444E-02  0.14949586E-10
    1    5    0.42862591E-03 -0.13365186E-11
    2    5    0.70761958E-03  0.23515460E-11
    3    5   -0.23264843E-02  0.57816946E-12
    4    5   -0.16757537E-03  0.94332328E-11
    5    5    0.42435694E-03  0.17142537E-13
    6    5    0.11858279E-02  0.93835486E-12
    7    5    0.26386377E-03  0.15998496E-11
    8    5    0.49037859E-03 -0.61572783E-12
    9    5   -0.30281127E-03 -0.58412568E-12
    1    6    0.37623865E-04 -0.69803711E-12
    2    6   -0.24318256E-02  0.41343088E-11
    3    6    0.54657707E-03  0.61368883E-11
    4    6    0.90233514E-03 -0.16728304E-11
    5    6    0.11858279E-02  0.13699740E-11
    6    6    0.11757375E-02  0.13049596E-11
    7    6   -0.59273848E-03 -0.75772852E-12
    8    6    0.58952522E-03 -0.88145853E-13
    9    6    0.36094637E-03  0.22519665E-13
    1    7   -0.73547859E-03 -0.19892794E-11
    2    7   -0.45951700E-03 -0.24390212E-13
    3    7   -0.17390556E-02 -0.13885431E-11
    4    7    0.10784163E-02 -0.40954774E-11
    5    7    0.26386377E-03  0.20966128E-12
    6    7   -0.59273848E-03 -0.97092928E-12
    7    7    0.12691759E-02  0.71040396E-12
    8    7   -0.41957476E-03  0.13893370E-11
    9    7    0.28463946E-03  0.37659307E-12
    1    8    0.96593141E-03  0.11101721E-11
    2    8    0.11900269E-02  0.16959300E-11
    3    8    0.36334616E-03  0.78012978E-11
    4    8   -0.68725613E-03  0.81907406E-11
    5    8    0.49037859E-03 -0.69532565E-12
    6    8    0.58952522E-03 -0.60206983E-12
    7    8   -0.41957476E-03  0.59782772E-12
    8    8   -0.17434408E-03 -0.85508857E-12
    9    8   -0.94807555E-03 -0.86367437E-12
    1    9    0.33295198E-03 -0.87613293E-12
    2    9   -0.90062443E-03  0.10305313E-11
    3    9    0.23596131E-02  0.10580339E-12
    4    9    0.12450444E-02  0.11090633E-10
    5    9   -0.30281127E-03 -0.12040181E-11
    6    9    0.36094637E-03 -0.77970659E-12
    7    9    0.28463946E-03  0.13058368E-11
    8    9   -0.94807555E-03 -0.61326920E-12
    9    9    0.35178613E-03  0.80287513E-12

   -3   -1   -2
    1    1   -0.38349139E-03 -0.35476056E-12
    2    1    0.69963248E-02 -0.29166287E-11
    3    1    0.64311384E-02 -0.58771963E-11
    4    1   -0.26852960E-02 -0.66889896E-12
    5    1    0.32733963E-03 -0.46167809E-11
    6    1    0.22365215E-02 -0.16773371E-12
    7    1   -0.11460724E-02  0.25624691E-11
    8    1    0.53153943E-03  0.50519756E-11
    9    1   -0.34314481E-03  0.11026563E-11
    1    2   -0.69963248E-02 -0.10671082E-11
    2    2    0.69934746E-02  0.93960469E-11
    3    2    0.15927093E-01 -0.15199190E-10
    4    2   -0.22989410E-02 -0.10623222E-10
    5    2   -0.27311653E-02 -0.33808581E-11
    6    2   -0.92340088E-03 -0.20743416E-11
    7    2   -0.16015478E-02 -0.76394099E-12
    8    2   -0.69229739E-03 -0.62184551E-11
    9    2    0.11469133E-02 -0.75649664E-13
    1    3   -0.64311384E-02  0.97152668E-12
    2    3    0.15927093E-01 -0.56238310E-11
    3    3    0.14473458E-01  0.13888790E-10
    4    3    0.31923908E-02 -0.89633244E-11
    5    3   -0.41999398E-03 -0.15502077E-10
    6    3    0.33629850E-03  0.48357247E-11
    7    3   -0.13777454E-02  0.47737163E-11
    8    3   -0.32261604E-02  0.13438022E-10
    9    3    0.22713123E-02  0.26706953E-11
    1    4    0.26852960E-02  0.50397811E-11
    2    4   -0.22989410E-02 -0.10064670E-11
    3    4    0.31923907E-02  0.27479836E-11
    4    4    0.14200659E-02  0.33503750E-11
    5    4   -0.74996467E-03  0.17567822E-11
    6    4    0.39608107E-03  0.55102674E-11
    7    4   -0.17380945E-02 -0.24350244E-11
    8    4    0.26707965E-04 -0.28606440E-11
    9    4   -0.82660601E-03  0.39098551E-11
    1    5    0.32733963E-03 -0.32006077E-11
    2    5    0.27311653E-02  0.47852746E-11
    3    5    0.41999398E-03  0.12039762E-10
    4    5    0.74996466E-03 -0.18839392E-11
    5    5   -0.75188492E-04  0.32479028E-11
    6    5   -0.54529863E-03 -0.21305059E-11
    7    5    0.43546134E-03 -0.19148689E-11
    8    5   -0.29058491E-03 -0.34696734E-11
    9    5    0.92653451E-03  0.14715514E-12
    1    6    0.22365215E-02  0.27348665E-11
    2    6    0.92340087E-03 -0.28700054E-11
    3    6   -0.33629851E-03 -0.38603313E-11
    4    6   -0.39608107E-03  0.11871704E-11
    5    6   -0.54529863E-03 -0.22775777E-11
    6    6    0.10443157E-02 -0.13094764E-11
    7    6    0.13175684E-02  0.11978534E-11
    8    6   -0.18337576E-03  0.24443712E-11
    9    6    0.97015239E-03  0.18284126E-11
    1    7   -0.11460724E-02  0.18062989E-11
    2    7    0.16015478E-02  0.13413749E-11
    3    7    0.13777454E-02 -0.59661153E-11
    4    7    0.17380945E-02 -0.13681480E-10
    5    7    0.43546134E-03 -0.18527621E-11
    6    7    0.13175684E-02  0.15403315E-11
    7    7   -0.27034660E-03  0.96804824E-12
    8    7   -0.12481745E-02  0.20076222E-11
    9    7   -0.12798800E-02  0.63802984E-13
    1    8    0.53153943E-03  0.32039525E-12
    2    8    0.69229739E-03  0.35046593E-11
    3    8    0.32261604E-02 -0.64808992E-11
    4    8   -0.26707961E-04  0.15302534E-11
    5    8   -0.29058491E-03 -0.35477008E-11
    6    8   -0.18337576E-03  0.11723851E-11
    7    8   -0.12481745E-02  0.19809962E-11
    8    8    0.11893463E-02  0.17373267E-11
    9    8    0.77428655E-03  0.74873912E-12
    1    9   -0.34314481E-03 -0.18435732E-11
    2    9   -0.11469133E-02  0.72679914E-11
    3    9   -0.22713123E-02 -0.29009000E-11
    4    9    0.82660601E-03 -0.12028113E-10
    5    9    0.92653451E-03  0.99237834E-12
    6    9    0.97015239E-03  0.36909544E-12
    7    9   -0.12798800E-02  0.78460369E-12
    8    9    0.77428655E-03 -0.13131141E-12
    9    9   -0.96923611E-03  0.42138808E-12

   -3   -1   -1
    1    1    0.10460101E-01  0.10563689E-10
    2    1    0.12931319E-02  0.54981922E-11
    3    1   -0.37483809E-02 -0.19846799E-10
    4    1    0.69129565E-03  0.99222713E-12
    5    1   -0.21675729E-02 -0.22962751E-11
    6    1    0.12708442E-02  0.59065851E-11
    7    1   -0.79781897E-04  0.12589435E-11
    8    1    0.37236630E-02 -0.35950626E-12
    9    1    0.72564446E-03  0.67659407E-11
    1    2   -0.12931319E-02 -0.24703642E-11
    2    2   -0.18637091E-02  0.89876370E-11
    3    2   -0.24271250E-02  0.23623933E-11
    4    2    0.35232454E-02  0.59082010E-11
    5    2   -0.62202437E-03  0.84012658E-13
    6    2   -0.18607642E-02 -0.30523396E-11
    7    2   -0.11710128E-02 -0.50323721E-12
    8    2    0.24819041E-02 -0.84989448E-11
    9    2   -0.14738470E-02  0.84269245E-11
    1    3    0.37483809E-02  0.16716884E-10
    2    3   -0.24271250E-02  0.31100556E-11
    3    3   -0.80911025E-02 -0.38741121E-10
    4    3   -0.14869989E-02 -0.25571377E-11
    5    3   -0.21517643E-02  0.25595472E-11
    6    3    0.28700579E-02  0.53663549E-11
    7    3   -0.15518075E-02  0.45231644E-11
    8    3    0.19089001E-02 -0.21924077E-11
    9    3    0.16561825E-02  0.13244522E-10
    1    4   -0.69129565E-03  0.11747273E-10
    2    4    0.35232454E-02 -0.58489429E-11
    3    4   -0.14869989E-02 -0.61141543E-11
    4    4   -0.59483139E-02  0.49452803E-11
    5    4   -0.24226424E-02 -0.27492461E-11
    6    4   -0.14973890E-02  0.24221266E-11
    7    4    0.63444008E-03 -0.30311587E-11
    8    4    0.34084733E-03  0.39490416E-11
    9    4   -0.25354663E-03 -0.49847119E-11
    1    5   -0.21675729E-02  0.16006528E-11
    2    5    0.62202436E-03 -0.39718185E-11
    3    5    0.21517643E-02 -0.66767850E-11
    4    5    0.24226424E-02  0.98928678E-13
    5    5    0.12446560E-04 -0.97989325E-12
    6    5   -0.10416104E-02 -0.11282305E-11
    7    5   -0.12629657E-03  0.62301293E-12
    8    5   -0.18265544E-02  0.34081492E-11
    9    5   -0.62247288E-03  0.16767592E-11
    1    6    0.12708442E-02  0.21468860E-11
    2    6    0.18607643E-02 -0.60745679E-12
    3    6   -0.28700579E-02 -0.14122956E-11
    4    6    0.14973890E-02 -0.20821885E-11
    5    6   -0.10416104E-02 -0.39474045E-12
    6    6   -0.16334570E-02  0.11477451E-11
    7    6   -0.69136281E-03  0.13107694E-11
    8    6    0.10322746E-02 -0.11150102E-11
    9    6   -0.18379623E-02  0.31809435E-13
    1    7   -0.79781895E-04  0.31835212E-11
    2    7    0.11710128E-02  0.30977842E-11
    3    7    0.15518075E-02 -0.91066928E-11
    4    7   -0.63444007E-03 -0.82106110E-12
    5    7   -0.12629657E-03  0.49411126E-12
    6    7   -0.69136281E-03  0.70382285E-13
    7    7   -0.10900536E-02 -0.15425924E-11
    8    7    0.62161952E-04 -0.74238147E-12
    9    7   -0.38782464E-03  0.67282410E-12
    1    8    0.37236630E-02  0.57202350E-11
    2    8   -0.24819041E-02  0.77616167E-11
    3    8   -0.19089001E-02 -0.60947185E-11
    4    8   -0.34084734E-03 -0.14151848E-11
    5    8   -0.18265544E-02  0.12746323E-11
    6    8    0.10322746E-02 -0.54952527E-12
    7    8    0.62161951E-04 -0.13618057E-11
    8    8    0.23089274E-02 -0.41397615E-12
    9    8    0.57952566E-03  0.15602925E-11
    1    9    0.72564447E-03  0.65434064E-11
    2    9    0.14738470E-02 -0.47822694E-11
    3    9   -0.16561825E-02 -0.40886478E-11
    4    9    0.25354663E-03  0.18540174E-11
    5    9   -0.62247288E-03  0.96286941E-12
    6    9   -0.18379623E-02  0.87960322E-12
    7    9   -0.38782464E-03 -0.11582606E-11
    8    9    0.57952566E-03  0.80541693E-12
    9    9    0.43923951E-03  0.49115573E-12

   -3   -1    0
    1    1   -0.18420176E-02  0.30525790E-11
    2    1    0.55066153E-08  0.37548922E-11
    3    1   -0.22468621E-02 -0.20911493E-11
    4    1    0.10902907E-02  0.10062819E-11
    5    1   -0.22769545E-03  0.60761561E-11
    6    1    0.97753958E-09 -0.57670882E-12
    7    1    0.53872019E-09 -0.11340859E-11
    8    1   -0.18254573E-02 -0.30699798E-11
    9    1   -0.60511739E-04 -0.67134250E-11
    1    2   -0.55057516E-08 -0.54712467E-11
    2    2    0.15988904E-02  0.73652195E-12
    3    2    0.26008322E-10  0.14681020E-10
    4    2   -0.16852518E-08 -0.41025169E-12
    5    2    0.48961989E-08 -0.18521781E-11
    6    2    0.30507509E-02 -0.38055149E-12
    7    2   -0.10540907E-02  0.86898717E-12
    8    2    0.39744909E-09 -0.16582820E-11
    9    2    0.29093402E-08 -0.12514466E-11
    1    3    0.22468621E-02  0.53670809E-11
    2    3    0.27689782E-10  0.63089672E-11
    3    3    0.17801740E-02 -0.15679666E-10
    4    3   -0.48492384E-02 -0.30217114E-11
    5    3    0.11971896E-02  0.57841839E-11
    6    3    0.10909119E-08 -0.49137742E-11
    7    3    0.45813291E-08  0.18695978E-11
    8    3   -0.17136846E-02 -0.67945354E-11
    9    3    0.15625698E-02 -0.87969957E-11
    1    4   -0.10902907E-02 -0.25231102E-11
    2    4   -0.16732277E-08  0.31365709E-11
    3    4   -0.48492383E-02  0.80505758E-11
    4    4    0.26455272E-02  0.11971577E-10
    5    4    0.27378677E-02  0.21588981E-11
    6    4    0.37395460E-08 -0.33706572E-11
    7    4    0.53885652E-08  0.58303189E-12
    8    4   -0.27277680E-02 -0.73876660E-11
    9    4   -0.94044603E-03 -0.44693329E-12
    1    5   -0.22769544E-03  0.20355991E-11
    2    5   -0.48952201E-08 -0.13457742E-11
    3    5   -0.11971896E-02 -0.31386872E-12
    4    5   -0.27378677E-02 -0.42632130E-11
    5    5   -0.36323697E-03 -0.22091738E-11
    6    5   -0.13504476E-08  0.26534289E-11
    7    5   -0.64751325E-09  0.12665758E-11
    8    5    0.79327071E-03  0.40373842E-12
    9    5   -0.11339017E-02 -0.21556446E-11
    1    6    0.98059696E-09 -0.80045692E-12
    2    6   -0.30507509E-02  0.11626932E-11
    3    6   -0.10978173E-08  0.39189810E-11
    4    6   -0.37412062E-08  0.35027699E-11
    5    6   -0.13500953E-08  0.11697099E-11
    6    6   -0.38471692E-05 -0.10707754E-12
    7    6   -0.59278749E-03 -0.48842538E-12
    8    6    0.72488223E-09 -0.14269159E-11
    9    6    0.69360145E-09  0.11947919E-12
    1    7    0.53619750E-09 -0.11345716E-11
    2    7    0.10540907E-02 -0.32128987E-12
    3    7   -0.45765634E-08 -0.40010486E-11
    4    7   -0.53848839E-08  0.37674933E-11
    5    7   -0.64757243E-09  0.18460363E-11
    6    7   -0.59278749E-03 -0.10187730E-11
    7    7    0.11619034E-03  0.51427265E-12
    8    7   -0.14006940E-09 -0.11955052E-11
    9    7    0.18431280E-09  0.17886961E-11
    1    8   -0.18254573E-02 -0.98142089E-12
    2    8   -0.39367543E-09 -0.31539862E-11
    3    8    0.17136846E-02  0.54963204E-11
    4    8    0.27277680E-02  0.45786300E-11
    5    8    0.79327071E-03  0.21259940E-11
    6    8    0.72431139E-09 -0.86751786E-13
    7    8   -0.13886085E-09 -0.69772286E-12
    8    8    0.33211101E-03 -0.23449055E-11
    9    8    0.21301368E-03 -0.13176409E-11
    1    9   -0.60511739E-04 -0.28908087E-11
    2    9   -0.29146089E-08 -0.28499512E-12
    3    9   -0.15625698E-02  0.16064515E-11
    4    9    0.94044603E-03  0.14740110E-11
    5    9   -0.11339017E-02 -0.10935346E-11
    6    9    0.69354628E-09 -0.43532414E-12
    7    9    0.18604061E-09  0.29656952E-12
    8    9    0.21301368E-03 -0.49741808E-12
    9    9   -0.10794327E-02  0.24303060E-11

   -3   -1    1
    1    1   -0.76594329E-03  0.54816219E-12
    2    1    0.47805238E-03 -0.49623847E-12
    3    1    0.26294555E-04 -0.12933456E-11
    4    1   -0.84236860E-03 -0.43787196E-11
    5    1    0.20156540E-03 -0.20719610E-12
    6    1   -0.10562896E-02 -0.44074352E-11
    7    1   -0.38743111E-03  0.13480508E-11
    8    1   -0.81617402E-03 -0.11416427E-11
    9    1   -0.62385383E-03  0.29459134E-11
    1    2   -0.47805239E-03  0.28033860E-11
    2    2   -0.80394736E-03 -0.32385647E-11
    3    2    0.16144649E-02 -0.38770451E-11
    4    2   -0.33647256E-02 -0.10467283E-10
    5    2   -0.67843556E-03 -0.14532906E-11
    6    2   -0.28047258E-03  0.16922045E-11
    7    2    0.39781843E-03 -0.10398279E-11
    8    2    0.58209108E-03  0.60996352E-12
    9    2    0.64191054E-03 -0.22425268E-11
    1    3   -0.26294559E-04 -0.58400524E-11
    2    3    0.16144650E-02  0.19928944E-11
    3    3   -0.65122541E-02 -0.53436418E-11
    4    3    0.81197593E-03  0.64147330E-11
    5    3    0.73768986E-04  0.41299967E-11
    6    3   -0.13301360E-02 -0.36352085E-12
    7    3   -0.34786576E-04 -0.20133168E-12
    8    3    0.39233736E-04  0.45482368E-12
    9    3    0.23273232E-02  0.35875703E-11
    1    4    0.84236860E-03 -0.63049982E-11
    2    4   -0.33647256E-02  0.13884241E-10
    3    4    0.81197593E-03  0.28557614E-11
    4    4    0.29981874E-02  0.76938358E-12
    5    4    0.32491675E-03 -0.57547456E-11
    6    4   -0.29198505E-03  0.28976663E-11
    7    4   -0.19183357E-03  0.51905598E-11
    8    4   -0.14672499E-02  0.28579378E-11
    9    4    0.30953807E-03 -0.13262377E-11
    1    5    0.20156540E-03  0.25248437E-11
    2    5    0.67843555E-03  0.26707803E-12
    3    5   -0.73768990E-04 -0.68366320E-11
    4    5   -0.32491674E-03 -0.64854788E-11
    5    5    0.42849510E-04  0.11573336E-11
    6    5   -0.17704327E-03 -0.73057867E-12
    7    5   -0.80274457E-03 -0.25126399E-12
    8    5    0.72290554E-03  0.33872500E-12
    9    5    0.30564215E-03  0.10252024E-11
    1    6   -0.10562896E-02 -0.15063736E-11
    2    6    0.28047258E-03 -0.30733150E-11
    3    6    0.13301360E-02 -0.29155159E-11
    4    6    0.29198504E-03  0.31861707E-11
    5    6   -0.17704327E-03 -0.17004624E-14
    6    6   -0.43166170E-03 -0.16011008E-12
    7    6    0.34554063E-03 -0.11192188E-11
    8    6    0.15256284E-03 -0.46355731E-12
    9    6   -0.82306336E-03  0.40821818E-12
    1    7   -0.38743111E-03 -0.14572964E-11
    2    7   -0.39781843E-03 -0.66894060E-12
    3    7    0.34786578E-04  0.42461378E-11
    4    7    0.19183356E-03  0.11905581E-11
    5    7   -0.80274456E-03 -0.12151469E-12
    6    7    0.34554063E-03  0.40288314E-12
    7    7   -0.17054631E-03 -0.10167711E-12
    8    7    0.38403398E-04  0.24500955E-12
    9    7   -0.78417298E-04  0.58166030E-12
    1    8   -0.81617402E-03 -0.18082573E-11
    2    8   -0.58209108E-03  0.64469323E-12
    3    8   -0.39233742E-04  0.84175410E-11
    4    8    0.14672499E-02 -0.25895276E-11
    5    8    0.72290554E-03 -0.86084738E-12
    6    8    0.15256284E-03  0.94739172E-13
    7    8    0.38403398E-04  0.10758342E-11
    8    8   -0.21569164E-03 -0.11075833E-11
    9    8    0.32713814E-03 -0.25637087E-12
    1    9   -0.62385383E-03 -0.64967104E-12
    2    9   -0.64191054E-03 -0.10386017E-12
    3    9   -0.23273232E-02 -0.72231283E-12
    4    9   -0.30953806E-03 -0.11008069E-11
    5    9    0.30564215E-03  0.91582045E-12
    6    9   -0.82306336E-03 -0.24697535E-12
    7    9   -0.78417297E-04  0.93220833E-12
    8    9    0.32713814E-03 -0.73855619E-12
    9    9    0.51928444E-03 -0.18280016E-12

   -3    0   -3
    1    1    0.82314178E-02  0.40462650E-15
    2    1    0.66597124E-12  0.66689883E-11
    3    1    0.33634075E-11  0.38291575E-11
    4    1    0.96769497E-11 -0.93666394E-12
    5    1   -0.23618008E-03  0.11284706E-11
    6    1   -0.80666384E-03 -0.25510201E-11
    7    1    0.56557145E-03 -0.84774904E-12
    8    1   -0.14508526E-03 -0.31479316E-12
    9    1    0.46085409E-03 -0.13362889E-11
    1    2    0.65763773E-12 -0.66689883E-11
    2    2    0.18353865E-02  0.47474008E-15
    3    2    0.55730819E-02 -0.71168886E-11
    4    2   -0.38624967E-02  0.50970016E-11
    5    2    0.28275309E-11 -0.34706717E-11
    6    2   -0.23286702E-11  0.15300790E-11
    7    2    0.14724333E-11  0.13330257E-11
    8    2   -0.13910335E-11 -0.61906518E-12
    9    2    0.13770206E-12 -0.22482503E-11
    1    3    0.33528622E-11 -0.38291575E-11
    2    3    0.55730819E-02  0.71170221E-11
    3    3   -0.27779997E-03  0.39115282E-15
    4    3   -0.31587338E-02  0.27171431E-11
    5    3    0.34342999E-12 -0.26000938E-11
    6    3   -0.47345212E-11  0.43735007E-11
    7    3    0.20356988E-11 -0.86125193E-12
    8    3    0.37499593E-12 -0.27433958E-12
    9    3    0.14813108E-11 -0.36673962E-11
    1    4    0.96846225E-11  0.93666394E-12
    2    4   -0.38624967E-02 -0.50968904E-11
    3    4   -0.31587338E-02 -0.27172232E-11
    4    4   -0.25062552E-02  0.59108538E-15
    5    4   -0.46016360E-11  0.14002237E-11
    6    4   -0.50470367E-12 -0.34382339E-11
    7    4    0.16385387E-11  0.16474946E-11
    8    4   -0.27656577E-11  0.18204761E-11
    9    4    0.51750880E-11  0.35688709E-11
[...]
    7    7   -0.15260406E-12  0.17758510E-12 -0.78873112E-12 -0.94057967E-12 -0.83226923E-12  0.26550967E-11
    8    7   -0.25109388E-04 -0.29620002E-11  0.25232518E-04 -0.72547425E-12 -0.38252373E-04  0.14791541E-11
    9    7    0.13978203E-04  0.92007813E-12 -0.18463371E-04 -0.35033358E-11  0.18833809E-04  0.15866092E-11
    1    8   -0.24299749E-04  0.15637993E-11  0.83993042E-04 -0.22319840E-13  0.66850198E-04  0.18417185E-11
    2    8    0.24302297E-03 -0.20391621E-11  0.14011110E-03  0.47502811E-12 -0.10441957E-03 -0.12594866E-11
    3    8    0.47205971E-04 -0.45272849E-11  0.29826031E-04  0.14414053E-12 -0.11333002E-04  0.31312011E-12
    4    8   -0.19584283E-03  0.83487292E-12  0.15829207E-03 -0.15936152E-11  0.11518776E-03 -0.80298275E-12
    5    8    0.54396516E-04 -0.30113886E-11 -0.70696047E-04  0.33369035E-11  0.59061545E-05  0.13416739E-11
    6    8    0.51904124E-05 -0.52551495E-11  0.63345244E-05  0.42720424E-11  0.49413188E-05 -0.14590808E-11
    7    8   -0.16350215E-04  0.16968936E-11  0.81458816E-05 -0.39827395E-11  0.40737187E-04  0.86844383E-12
    8    8   -0.21746488E-12  0.30210748E-13  0.47114786E-12  0.73947074E-12  0.11459276E-12 -0.12859482E-12
    9    8   -0.21398653E-04  0.41378458E-11 -0.41125563E-04  0.23536654E-12  0.15854885E-05  0.24666671E-11
    1    9    0.12916305E-03  0.11144268E-11  0.28830612E-04  0.14514913E-11 -0.34077295E-04 -0.11676735E-11
    2    9   -0.11744716E-03  0.15095926E-11 -0.94869797E-05  0.33214028E-11 -0.14163083E-04 -0.83187997E-12
    3    9   -0.30891810E-04  0.18249423E-11 -0.34096201E-03 -0.31466191E-11 -0.68115662E-04  0.12376856E-11
    4    9   -0.16492642E-03 -0.35116847E-11  0.46283018E-04 -0.16138954E-11  0.77323728E-05 -0.13014211E-11
    5    9   -0.96502131E-05 -0.89107597E-12 -0.45722664E-04 -0.33677369E-11 -0.32892395E-04 -0.14024704E-11
    6    9   -0.25764282E-04 -0.11483283E-11 -0.72242123E-05 -0.49129592E-12 -0.60422877E-06  0.13000252E-11
    7    9   -0.58131985E-05 -0.97242690E-12  0.50111630E-05 -0.45266778E-12 -0.33067440E-04 -0.11433672E-11
    8    9   -0.16782548E-04 -0.93280727E-12 -0.40628885E-04 -0.95518231E-12 -0.10122139E-04 -0.16482638E-11
    9    9   -0.11906356E-12 -0.64745340E-12 -0.27609478E-12 -0.17911558E-12 -0.68936173E-12  0.71250675E-13

    4    2    2
    1    1   -0.53017253E-13  0.22938184E-13 -0.47007223E-12 -0.44265849E-12  0.27396498E-12 -0.77258065E-13
    2    1   -0.24819864E-04  0.38042971E-12  0.27525575E-03 -0.37073280E-12  0.17990260E-03  0.14470883E-11
    3    1    0.32546575E-03 -0.63235517E-12 -0.11313363E-04  0.20529592E-11 -0.24161656E-04  0.91038852E-12
    4    1   -0.14691605E-04 -0.41593817E-13 -0.13914044E-03  0.57238957E-12  0.27526549E-03  0.16887329E-11
    5    1    0.18902250E-04 -0.22904589E-11 -0.15569611E-04 -0.10681799E-11 -0.77253860E-05  0.51566981E-12
    6    1    0.19884406E-04  0.89429841E-12 -0.77019647E-05 -0.14241769E-11  0.43966700E-05 -0.19126179E-11
    7    1    0.76986877E-04 -0.35580282E-12  0.22817518E-04  0.44888325E-12  0.27794667E-04  0.31575933E-11
    8    1    0.55404516E-04 -0.25669187E-11  0.28401435E-04 -0.80366783E-12  0.60241047E-04  0.26451908E-11
    9    1    0.10577861E-04  0.83396498E-12  0.12731595E-04  0.23810933E-11 -0.77285913E-05 -0.44453524E-11
    1    2    0.28208994E-03 -0.41604857E-12 -0.21314477E-03  0.25027178E-12 -0.39897735E-03 -0.82557726E-12
    2    2    0.75998393E-13  0.73408698E-13 -0.41063756E-12 -0.84427909E-13  0.11858009E-12 -0.45314437E-13
    3    2    0.35200385E-03  0.61573537E-13  0.72415281E-04 -0.78036640E-12 -0.11655135E-03  0.32678460E-12
    4    2    0.14621901E-03 -0.34228941E-13  0.22865859E-04  0.39893226E-12  0.10451058E-03  0.14974015E-11
    5    2    0.79498665E-04 -0.98171025E-12 -0.90880345E-04 -0.75059333E-12  0.18601204E-04  0.21467481E-13
    6    2    0.17625983E-03 -0.12312338E-11  0.18447331E-04  0.31551680E-12 -0.50674611E-05 -0.10279321E-11
    7    2    0.21403453E-03  0.57547403E-12 -0.57156713E-04 -0.36978735E-12 -0.14416729E-03  0.37900693E-12
    8    2    0.26751546E-03 -0.13626501E-13 -0.16041949E-04 -0.15637544E-12  0.33171640E-04 -0.52154410E-12
    9    2   -0.28894859E-04  0.38663679E-12  0.76006432E-04  0.65831784E-12 -0.13011725E-03  0.15317143E-11
    1    3   -0.29052993E-03  0.14320852E-11  0.16839951E-03  0.96774159E-12  0.28906750E-03  0.35431776E-12
    2    3    0.48589697E-04 -0.11898298E-11  0.24468517E-03 -0.45127113E-12  0.27436613E-03 -0.57778124E-12
    3    3   -0.41415998E-13 -0.10493860E-12  0.25513381E-12  0.38808474E-12 -0.41372933E-13 -0.12464450E-12
    4    3    0.28963376E-04  0.13617937E-11 -0.50152796E-05  0.13335535E-12  0.24615953E-03  0.46809648E-12
    5    3    0.64444250E-04  0.12267068E-11 -0.10378290E-03  0.29492313E-11  0.84466380E-06  0.80126651E-12
    6    3    0.12824586E-03 -0.12638586E-11 -0.31169189E-04  0.11764601E-11  0.13362341E-03 -0.68123814E-12
    7    3    0.14705736E-03 -0.78081008E-12  0.16604015E-03 -0.41544265E-12  0.16845860E-03  0.47055469E-12
    8    3    0.58219634E-04 -0.21673232E-11  0.13358896E-03  0.11396557E-11  0.33567699E-03 -0.13975849E-11
    9    3    0.71946634E-04  0.15919205E-11  0.17107134E-03 -0.22509739E-11 -0.33379638E-04  0.38186178E-12
    1    4    0.16005900E-03 -0.43696218E-12 -0.15288973E-03 -0.13021503E-12 -0.21177481E-03 -0.50384828E-12
    2    4    0.14210386E-03 -0.10737172E-11 -0.38288150E-04 -0.29433756E-12  0.14399914E-03  0.13529191E-11
    3    4    0.20630348E-03  0.15862404E-12 -0.19705550E-03 -0.46635667E-12  0.74349915E-04 -0.53595846E-12
    4    4   -0.20443191E-12  0.87923737E-13  0.64785453E-12  0.84724312E-12 -0.92334340E-13 -0.51769786E-12
    5    4   -0.70324800E-04  0.13434966E-11 -0.70530349E-04 -0.44403602E-12 -0.11114836E-03 -0.21754482E-11
    6    4   -0.28311538E-04 -0.52230536E-12 -0.16949372E-03 -0.83103733E-12  0.12352629E-04  0.15479092E-11
    7    4    0.20276812E-03  0.68593640E-12  0.51955625E-04  0.29280608E-13 -0.42806798E-04 -0.24301056E-11
    8    4    0.87239933E-04  0.12648482E-11 -0.58600448E-04  0.14645683E-12 -0.24829096E-04 -0.38219659E-12
    9    4    0.20995077E-03 -0.35562806E-11  0.31625477E-04 -0.16535812E-11  0.88362683E-04 -0.10836650E-11
    1    5    0.30195967E-04 -0.13679596E-11  0.70662914E-04  0.50983490E-12 -0.69906772E-04 -0.33397122E-12
    2    5   -0.65688466E-04  0.17021723E-11  0.46924614E-04 -0.11628642E-11  0.48351018E-04 -0.21628646E-12
    3    5    0.66397087E-04 -0.19201201E-11  0.46394757E-04  0.26062706E-11 -0.20312070E-04 -0.13776960E-11
    4    5    0.45266248E-04 -0.30584666E-11 -0.11117561E-04  0.61281644E-12  0.28335636E-05 -0.15397809E-11
    5    5   -0.78578765E-12 -0.34329704E-12 -0.21267951E-12 -0.80018138E-12  0.66046795E-12  0.84166455E-12
    6    5    0.11944972E-04 -0.10361746E-11 -0.33774895E-05 -0.20993639E-11 -0.13086853E-04 -0.52054646E-11
    7    5    0.54817868E-04  0.26540470E-11  0.46945615E-04  0.16243854E-11 -0.11143225E-04  0.68233680E-11
    8    5   -0.45897287E-04  0.39737497E-11 -0.71581112E-05  0.14280874E-11 -0.41377056E-04  0.58624324E-11
    9    5    0.51997160E-04 -0.48870251E-11  0.16494507E-04 -0.21436906E-11  0.34929592E-04 -0.67357925E-11
    1    6    0.27313516E-04  0.21087534E-11  0.76420323E-04  0.68341538E-12 -0.47215003E-04 -0.12118063E-11
    2    6   -0.98476424E-04 -0.66624481E-12 -0.15768477E-04  0.96959356E-12 -0.17778051E-03  0.30750409E-11
    3    6   -0.21589822E-03  0.65488154E-11 -0.17691043E-04  0.15146240E-11 -0.90076079E-04 -0.21567470E-11
    4    6   -0.46791064E-04  0.65805311E-12 -0.73902886E-04 -0.88128985E-12 -0.25258928E-05 -0.33098437E-11
    5    6   -0.13010705E-04 -0.10740498E-11  0.21590276E-04  0.86059541E-12  0.25787352E-04 -0.36055039E-12
    6    6    0.18328771E-12  0.27892553E-14 -0.20095938E-11 -0.14520065E-11  0.17044462E-11  0.19240259E-11
    7    6    0.36813240E-04  0.10808319E-12  0.44072220E-04  0.56191289E-12  0.18706569E-04 -0.15854819E-11
    8    6   -0.12323159E-04 -0.10038051E-11 -0.23027365E-06  0.13732619E-11 -0.56674960E-04 -0.27449663E-12
    9    6    0.17829702E-04 -0.11446202E-11 -0.57321827E-05  0.23320749E-11  0.27247938E-04 -0.35129736E-11
    1    7    0.10075961E-03 -0.40008461E-12 -0.35221991E-04  0.87800225E-12  0.65837252E-04 -0.45299034E-12
    2    7   -0.16205664E-03  0.25256058E-12  0.15484298E-03 -0.30612673E-12  0.49282078E-04 -0.23742412E-11
    3    7    0.26195698E-04  0.15528794E-11 -0.12212192E-03  0.20890319E-11 -0.14789399E-03  0.21877339E-11
    4    7   -0.14896107E-03 -0.53024687E-12 -0.12582539E-03 -0.17782845E-11  0.18305211E-03  0.10680220E-11
    5    7    0.58260379E-04  0.13808652E-11 -0.13731511E-04  0.19267082E-11  0.35357683E-04 -0.36556488E-12
    6    7    0.17723369E-04 -0.97002267E-12 -0.79301607E-05 -0.11736372E-11  0.70347261E-05 -0.19690694E-11
    7    7    0.75683700E-13 -0.63886980E-13  0.53623633E-12 -0.14800064E-11 -0.10746996E-11  0.36998230E-12
    8    7   -0.39590254E-05  0.70069565E-12 -0.26043947E-04  0.19355806E-11  0.15692583E-04  0.19959703E-11
    9    7   -0.20081543E-04  0.13652393E-11 -0.80774785E-06 -0.15781158E-11 -0.33553157E-04 -0.58508944E-12
    1    8    0.63593477E-04 -0.18884620E-11  0.93114400E-04  0.14045529E-11  0.49773275E-04  0.42293656E-12
    2    8   -0.18365430E-03  0.92445977E-13  0.14752200E-03  0.50996467E-12  0.11919225E-04 -0.74064566E-12
    3    8   -0.83640957E-04  0.17155592E-11 -0.87310064E-04  0.25563988E-11 -0.21265232E-03  0.17664571E-11
    4    8   -0.58800475E-04  0.51798877E-13 -0.16210307E-03 -0.41567598E-12  0.12031633E-03  0.14665222E-11
    5    8   -0.41513375E-04  0.22126230E-11 -0.60352585E-05  0.14057312E-11 -0.28140036E-04  0.22580505E-12
    6    8   -0.60535283E-04  0.41972823E-11 -0.30774266E-04  0.12279203E-11 -0.24659871E-04  0.72238386E-12
    7    8    0.19061972E-05 -0.35102494E-11  0.24031796E-04 -0.18726158E-12  0.67428360E-05  0.18942297E-11
    8    8   -0.20903635E-12 -0.47730805E-12 -0.17396846E-11 -0.24176659E-11  0.57480554E-12  0.10277946E-11
    9    8   -0.85566132E-05  0.23849491E-11  0.25814480E-04  0.81996078E-12 -0.85717296E-05 -0.93435159E-13
    1    9    0.14341001E-04  0.51153564E-12 -0.13514047E-03 -0.20892381E-12  0.76353657E-04  0.10218665E-11
    2    9   -0.45747983E-04  0.26766748E-12 -0.39935480E-04 -0.12142187E-11 -0.21198597E-04 -0.53953203E-12
    3    9   -0.12476803E-03 -0.83751798E-12 -0.67957984E-04 -0.12102300E-11 -0.18007306E-04  0.15325922E-11
    4    9   -0.47962453E-04  0.21487726E-11 -0.12530427E-03  0.71517681E-12 -0.65647285E-04  0.18282205E-12
    5    9    0.51068492E-04 -0.26508478E-11  0.17162976E-04 -0.29755362E-12  0.43598548E-04 -0.39731232E-12
    6    9    0.17613146E-04  0.40255770E-11  0.16771632E-04  0.12823633E-11  0.14231277E-04  0.25235775E-12
    7    9   -0.17910901E-04 -0.18462104E-11 -0.43112094E-04 -0.17263322E-11  0.29499001E-04  0.18101180E-11
    8    9    0.26670798E-04 -0.16152603E-11 -0.47055828E-04 -0.42786989E-11  0.12395816E-04  0.41398340E-12
    9    9    0.69060585E-12  0.89841189E-13 -0.13172973E-11 -0.68556797E-12  0.54230631E-12  0.15466680E-13

    4    3    1
    1    1   -0.58957243E-13 -0.40789348E-12  0.13646374E-12  0.25536777E-12  0.29784377E-12 -0.34504867E-12
    2    1   -0.81245481E-04  0.73843945E-12  0.58629574E-04 -0.36763669E-14  0.13929985E-03  0.74583720E-12
    3    1    0.24346063E-03 -0.17032399E-11  0.14468369E-03 -0.11658940E-11 -0.78113564E-04 -0.15001922E-11
    4    1    0.15538162E-03 -0.31654705E-12  0.35185872E-03  0.24952499E-11  0.53370199E-04  0.11238247E-11
    5    1   -0.39120393E-04 -0.95914971E-12  0.28377602E-04  0.77916219E-12  0.16447194E-04  0.15073927E-11
    6    1    0.42263566E-04 -0.15563996E-11 -0.49850275E-04 -0.23401367E-11  0.61817705E-04 -0.15496462E-11
    7    1   -0.48407538E-04  0.26743886E-11  0.67732774E-05  0.12138014E-11 -0.43706078E-04 -0.65887834E-13
    8    1   -0.16006667E-04  0.14819285E-11 -0.17917717E-04 -0.27448857E-12 -0.14195761E-04 -0.35480679E-12
    9    1   -0.11828514E-05 -0.26485056E-11 -0.11361789E-04 -0.32205434E-11  0.41099867E-04  0.10011086E-12
    1    2    0.32611249E-03  0.75566086E-12 -0.23174048E-03  0.59371320E-12 -0.62854041E-04 -0.86300262E-12
    2    2    0.11416078E-12  0.98483993E-13 -0.17187128E-12  0.14335202E-13  0.33516410E-12 -0.31504337E-12
    3    2    0.15499404E-03 -0.62332982E-12  0.50787137E-04 -0.30534186E-12 -0.29030649E-04  0.89173549E-12
    4    2    0.52779006E-04  0.62440663E-12  0.19256504E-03 -0.47721807E-12  0.18100928E-04 -0.19544964E-12
    5    2    0.10971499E-03  0.97590786E-13 -0.77437902E-04 -0.67191533E-12 -0.12364772E-03 -0.12057908E-11
    6    2   -0.89179540E-04  0.21485236E-12  0.14057864E-03  0.11188134E-11  0.16402081E-04  0.97225830E-16
    7    2    0.14056477E-03 -0.39278795E-12  0.10249589E-04  0.36678310E-13 -0.10978624E-04  0.52147906E-12
    8    2    0.19125488E-03 -0.51581878E-12  0.98859548E-04  0.99619124E-13  0.63698281E-04  0.67781251E-12
    9    2   -0.19172173E-03  0.11431007E-11  0.21781306E-03  0.15919636E-11 -0.18073714E-03 -0.94820671E-12
    1    3   -0.18164647E-03 -0.83257587E-12 -0.16624606E-03 -0.26231841E-12  0.32713818E-03  0.86827404E-12
    2    3   -0.34848819E-05 -0.11182478E-11  0.49124827E-04  0.23767819E-13  0.97755930E-04 -0.80162248E-12
    3    3   -0.11649094E-12  0.26784742E-12 -0.95449751E-13  0.22338149E-13  0.55559471E-13 -0.95392578E-13
    4    3    0.12532291E-03 -0.14865632E-12  0.72811638E-04 -0.48928412E-12 -0.43151278E-04  0.53503637E-12
    5    3    0.14389546E-03  0.21954409E-11 -0.12043927E-03  0.30611761E-11  0.15987596E-03  0.77238502E-12
    6    3   -0.21039776E-04 -0.14813904E-11 -0.84957297E-04 -0.13747196E-11 -0.11564844E-03 -0.13085810E-11
    7    3    0.16333168E-03  0.80169232E-13  0.20296934E-03  0.11215864E-12  0.10459906E-03  0.93867438E-12
    8    3    0.56086863E-04 -0.18768314E-11  0.54651845E-04 -0.34210495E-11  0.10167065E-03 -0.21333430E-12
    9    3    0.41843990E-04 -0.25596743E-11  0.34848403E-04 -0.48814929E-11 -0.19428355E-03 -0.40392188E-12
    1    4   -0.17254519E-03 -0.16556952E-12 -0.30683693E-03 -0.15194926E-11 -0.22628441E-03  0.30264180E-12
    2    4    0.49106380E-04  0.31393121E-12  0.31434705E-04 -0.49738299E-12 -0.68339402E-04  0.45469082E-12
    3    4    0.33017956E-04 -0.85759955E-12 -0.60193778E-04  0.49740501E-12 -0.42304628E-04 -0.32704598E-12
    4    4    0.38792172E-13 -0.12211853E-12  0.10544541E-13  0.81375709E-13 -0.20262977E-13 -0.35643446E-12
    5    4   -0.11852443E-03  0.96137213E-12  0.57419847E-04  0.17956313E-11 -0.11093779E-03 -0.29333193E-12
    6    4   -0.17147399E-03 -0.91252787E-13 -0.27177283E-03  0.15873551E-12  0.10292029E-03  0.14576116E-11
    7    4    0.85858670E-04  0.17401756E-11  0.46627552E-04  0.28812320E-11 -0.40079589E-04 -0.11725174E-12
    8    4   -0.18327891E-04  0.23623707E-11 -0.72155354E-04  0.29071242E-11 -0.66575033E-05  0.28593649E-12
    9    4    0.90054537E-05 -0.16925371E-11  0.68373044E-05 -0.24866428E-11  0.15705931E-03 -0.11031952E-11
    1    5    0.62285362E-04 -0.44684390E-13 -0.43362017E-04 -0.17216564E-11 -0.91907649E-05 -0.20436412E-11
    2    5   -0.78177197E-04  0.42745309E-12  0.55088429E-04  0.99397141E-12 -0.52130261E-04  0.94644556E-12
    3    5    0.55024817E-04 -0.22589084E-11  0.76140774E-05 -0.14700454E-11  0.96659952E-04  0.48061956E-12
    4    5    0.79061215E-05 -0.13989606E-11  0.60717165E-04 -0.47405748E-11 -0.67689782E-04  0.22461198E-11
    5    5   -0.70842123E-12  0.27644217E-12  0.22668367E-12 -0.30283518E-12  0.12900073E-11  0.16527119E-11
    6    5    0.19527187E-05 -0.12479917E-11  0.70950849E-05 -0.18521585E-11  0.11097505E-04 -0.13908157E-11
    7    5    0.68358771E-05 -0.32563492E-11  0.68843925E-05  0.32088050E-12 -0.78762207E-05 -0.13529805E-11
    8    5   -0.35776723E-04 -0.38563803E-12 -0.22591729E-04  0.63482240E-12  0.17803227E-04 -0.14206609E-11
    9    5    0.29403756E-04  0.51657077E-12 -0.37406272E-04 -0.18920049E-11 -0.49868860E-04  0.93863482E-12
    1    6    0.91551292E-04 -0.88865442E-12 -0.89011646E-04 -0.85071597E-12  0.12615067E-03 -0.71889900E-13
    2    6   -0.30863025E-04 -0.29984053E-11 -0.47966457E-04  0.18228232E-12 -0.15476023E-03  0.20766836E-11
    3    6   -0.43242989E-04  0.31427451E-11  0.93465787E-04  0.18949484E-11  0.49391844E-04 -0.27665298E-11
    4    6    0.29403396E-03  0.24155622E-12  0.17330411E-03  0.72161747E-12  0.66996297E-04 -0.16846375E-11
    5    6   -0.10737304E-04 -0.33571642E-12  0.13345815E-04 -0.45840907E-12 -0.15861933E-04  0.75536571E-13
    6    6    0.43891544E-12  0.65323599E-12 -0.19380836E-12 -0.58302759E-12  0.75415153E-12  0.13682300E-11
    7    6    0.11860680E-04  0.15539326E-12  0.20749684E-04  0.13654186E-11  0.23521931E-04  0.20350472E-11
    8    6    0.24053114E-04  0.46165439E-12  0.34203080E-04  0.96975473E-12  0.42883306E-05  0.27599792E-11
    9    6    0.39750961E-04 -0.40434508E-11  0.40474328E-05 -0.24656523E-11  0.32493363E-04 -0.10200215E-11
    1    7   -0.88635866E-04 -0.68528332E-12  0.28733339E-04  0.11411254E-11 -0.89376442E-04 -0.13286869E-11
    2    7   -0.47793474E-04  0.47797865E-12 -0.64787679E-04  0.34640360E-12  0.10977029E-03  0.19887455E-12
    3    7   -0.42150858E-04  0.25428675E-11 -0.30379576E-03  0.58176596E-12  0.64409840E-04 -0.22793543E-11
    4    7   -0.22148083E-04  0.71270613E-13 -0.54550737E-04 -0.20691232E-11  0.96717264E-04 -0.24364063E-11
    5    7    0.13255224E-04 -0.11192183E-11 -0.14276602E-05 -0.60165930E-12  0.11364676E-04  0.88206337E-12
    6    7    0.43906795E-05 -0.65539673E-12  0.10229820E-04  0.18791338E-11  0.23117134E-04 -0.66552449E-12
    7    7   -0.32109413E-12  0.51617498E-12  0.47449960E-12 -0.45275887E-12  0.44404636E-12 -0.54401022E-12
    8    7   -0.47473557E-05 -0.11895440E-11 -0.41852780E-04 -0.30129270E-12  0.27885826E-04 -0.16627786E-11
    9    7   -0.95282091E-05 -0.20058204E-11  0.11018591E-04 -0.49206954E-11 -0.12251663E-04 -0.93939352E-12
    1    8   -0.76532631E-05  0.31238003E-12 -0.31322966E-04 -0.63152357E-12  0.28495523E-04 -0.80428694E-12
    2    8   -0.10696176E-03 -0.29748132E-12 -0.19774222E-03 -0.94452336E-12  0.83988860E-05 -0.13725834E-11
    3    8    0.23193220E-04  0.41344531E-11 -0.83949412E-04  0.33013917E-11  0.48516017E-04  0.12502035E-11
    4    8    0.14357781E-03  0.10462106E-11 -0.34904854E-06 -0.30725165E-12  0.94645097E-04  0.16390004E-11
    5    8   -0.99557046E-05 -0.15695857E-11 -0.16887217E-04 -0.26564583E-11  0.14682623E-06  0.13264842E-12
    6    8    0.30843577E-04  0.29824427E-11  0.12298512E-04  0.14820936E-11  0.10462034E-04  0.84407877E-12
    7    8   -0.59007058E-05  0.24733510E-11 -0.39795036E-04  0.46289281E-12  0.12796617E-04 -0.63469693E-12
    8    8    0.63860905E-13 -0.40091348E-12 -0.37959864E-12  0.44825916E-12 -0.53067932E-12  0.33160007E-12
    9    8   -0.50983908E-06 -0.29828985E-11  0.17700308E-05  0.26084416E-11  0.76446020E-05  0.53043033E-12
    1    9   -0.33311196E-04 -0.32624026E-12  0.87756861E-05 -0.13267920E-11 -0.79656663E-04 -0.70416710E-12
    2    9   -0.10618628E-03 -0.22675644E-11 -0.20926750E-04  0.16746010E-11 -0.24838856E-04  0.65703539E-12
    3    9   -0.80083079E-05  0.32852374E-11 -0.10072402E-03 -0.31033053E-11  0.54488000E-04  0.28440758E-11
    4    9   -0.20906582E-04  0.59100875E-11 -0.66370926E-04 -0.99313479E-12  0.76779250E-05  0.48781571E-12
    5    9   -0.73003459E-05 -0.58415015E-12 -0.29499439E-05 -0.18544470E-11 -0.53212165E-06 -0.16991543E-11
    6    9    0.15349294E-04  0.16921729E-11  0.31504200E-04 -0.32029306E-11  0.22855888E-06 -0.12692205E-13
    7    9    0.25098861E-04 -0.18706078E-11  0.10238417E-04  0.43791841E-11  0.69609888E-05  0.85199040E-12
    8    9    0.43135366E-05  0.11176819E-11  0.77484530E-05  0.28896000E-11  0.78894936E-05 -0.10000965E-11
    9    9    0.99408129E-12  0.61814613E-12 -0.47828988E-12 -0.57800471E-12 -0.24285895E-12 -0.10609545E-11
