 written on 22Apr2026 at 01:20:52 
           9
         229
    1    1    2    1    2    1    1    2    1    1    2    1    1    1    1
    1    1    1    1    1    2    2    1    1    2    2    1    1    1    1
    1    1    1    1    1    1    1    1    1    1    1    1    1    1    1
    1    1    1    1    1    1    1    1    1    1    1    2    1    2    1
    1    1    1    1    1    1    1    1    1    1    1    1    1    1    1
    1    1    1    1    1    1    1    1    1    1    1    1    1    1    1
    1    1    1    1    1    2    1    1    2    1    1    1    1    1    1
    1    1    1    1    1    1    2    1    1    1    1    1    2    1    1
    1    1    1    1    1    1    1    1    1    1    2    1    1    2    1
    1    1    1    1    1    1    1    1    1    1    1    1    1    1    1
    1    1    1    1    1    1    1    1    1    1    1    1    1    1    1
    1    1    1    1    1    2    1    2    1    1    1    1    1    1    1
    1    1    1    1    1    1    1    1    1    1    1    1    1    1    1
    1    1    1    1    1    1    1    1    2    2    1    1    2    2    1
    1    1    1    1    1    1    1    1    2    1    1    2    1    1    2
    1    2    1    1
   -4   -3   -1    1    1    0.000187   -0.000000
   -4   -3   -1    2    1   -0.000372   -0.000000
   -4   -3   -1    3    1   -0.000314    0.000000
   -4   -3   -1    4    1    0.000355   -0.000000
   -4   -3   -1    5    1    0.000392   -0.000000
   -4   -3   -1    6    1   -0.000081    0.000000
   -4   -3   -1    7    1    0.000082    0.000000
   -4   -3   -1    8    1    0.000207   -0.000000
   -4   -3   -1    9    1   -0.000584   -0.000000
   -4   -3   -1    1    2    0.000372   -0.000000
   -4   -3   -1    2    2   -0.003499    0.000000
   -4   -3   -1    3    2    0.003502   -0.000000
   -4   -3   -1    4    2   -0.002457   -0.000000
   -4   -3   -1    5    2    0.001452    0.000000
   -4   -3   -1    6    2    0.002104   -0.000000
   -4   -3   -1    7    2   -0.001482    0.000000
   -4   -3   -1    8    2    0.000005   -0.000000
   -4   -3   -1    9    2   -0.000020   -0.000000
   -4   -3   -1    1    3    0.000314   -0.000000
   -4   -3   -1    2    3    0.003502   -0.000000
   -4   -3   -1    3    3   -0.005613   -0.000000
   -4   -3   -1    4    3   -0.003129   -0.000000
   -4   -3   -1    5    3   -0.000546    0.000000
   -4   -3   -1    6    3    0.002398   -0.000000
   -4   -3   -1    7    3   -0.000243    0.000000
   -4   -3   -1    8    3    0.001489    0.000000
   -4   -3   -1    9    3   -0.000571   -0.000000
   -4   -3   -1    1    4   -0.000355    0.000000
   -4   -3   -1    2    4   -0.002457   -0.000000
   -4   -3   -1    3    4   -0.003129   -0.000000
   -4   -3   -1    4    4   -0.007938   -0.000000
   -4   -3   -1    5    4    0.000401   -0.000000
   -4   -3   -1    6    4   -0.000163    0.000000
   -4   -3   -1    7    4    0.002268   -0.000000
   -4   -3   -1    8    4    0.001410    0.000000
   -4   -3   -1    9    4    0.001226   -0.000000
   -4   -3   -1    1    5    0.000392    0.000000
   -4   -3   -1    2    5   -0.001452   -0.000000
   -4   -3   -1    3    5    0.000546    0.000000
   -4   -3   -1    4    5   -0.000401   -0.000000
   -4   -3   -1    5    5   -0.001354   -0.000000
   -4   -3   -1    6    5    0.000307   -0.000000
   -4   -3   -1    7    5   -0.000217   -0.000000
   -4   -3   -1    8    5    0.000203   -0.000000
   -4   -3   -1    9    5   -0.000570    0.000000
   -4   -3   -1    1    6   -0.000081   -0.000000
   -4   -3   -1    2    6   -0.002104   -0.000000
   -4   -3   -1    3    6   -0.002398   -0.000000
   -4   -3   -1    4    6    0.000163    0.000000
   -4   -3   -1    5    6    0.000307    0.000000
   -4   -3   -1    6    6   -0.000198   -0.000000
   -4   -3   -1    7    6    0.000079   -0.000000
   -4   -3   -1    8    6    0.000283   -0.000000
   -4   -3   -1    9    6   -0.000471   -0.000000
   -4   -3   -1    1    7    0.000082   -0.000000
   -4   -3   -1    2    7    0.001482    0.000000
   -4   -3   -1    3    7    0.000243   -0.000000
   -4   -3   -1    4    7   -0.002268   -0.000000
   -4   -3   -1    5    7   -0.000217    0.000000
   -4   -3   -1    6    7    0.000079   -0.000000
   -4   -3   -1    7    7   -0.000145    0.000000
   -4   -3   -1    8    7    0.000018    0.000000
   -4   -3   -1    9    7    0.000403    0.000000
   -4   -3   -1    1    8    0.000207   -0.000000
   -4   -3   -1    2    8   -0.000005    0.000000
   -4   -3   -1    3    8   -0.001489   -0.000000
   -4   -3   -1    4    8   -0.001410   -0.000000
   -4   -3   -1    5    8    0.000203   -0.000000
   -4   -3   -1    6    8    0.000283    0.000000
   -4   -3   -1    7    8    0.000018    0.000000
   -4   -3   -1    8    8   -0.000113   -0.000000
   -4   -3   -1    9    8    0.000181    0.000000
   -4   -3   -1    1    9   -0.000584   -0.000000
   -4   -3   -1    2    9    0.000020   -0.000000
   -4   -3   -1    3    9    0.000571    0.000000
   -4   -3   -1    4    9   -0.001226   -0.000000
   -4   -3   -1    5    9   -0.000570   -0.000000
   -4   -3   -1    6    9   -0.000471   -0.000000
   -4   -3   -1    7    9    0.000403    0.000000
   -4   -3   -1    8    9    0.000181    0.000000
   -4   -3   -1    9    9   -0.000577   -0.000000
   -4   -2   -2    1    1    0.000752   -0.000000
   -4   -2   -2    2    1   -0.000701    0.000000
   -4   -2   -2    3    1   -0.001113    0.000000
   -4   -2   -2    4    1   -0.000333    0.000000
   -4   -2   -2    5    1   -0.000145    0.000000
   -4   -2   -2    6    1   -0.000122   -0.000000
   -4   -2   -2    7    1   -0.000957   -0.000000
   -4   -2   -2    8    1   -0.000839   -0.000000
   -4   -2   -2    9    1   -0.000090   -0.000000
   -4   -2   -2    1    2    0.000701   -0.000000
   -4   -2   -2    2    2    0.000425    0.000000
   -4   -2   -2    3    2   -0.004695    0.000000
   -4   -2   -2    4    2   -0.004768   -0.000000
   -4   -2   -2    5    2    0.000877    0.000000
   -4   -2   -2    6    2   -0.000602   -0.000000
   -4   -2   -2    7    2    0.002241   -0.000000
   -4   -2   -2    8    2   -0.000478    0.000000
   -4   -2   -2    9    2    0.000742   -0.000000
   -4   -2   -2    1    3    0.001113   -0.000000
   -4   -2   -2    2    3   -0.004695    0.000000
   -4   -2   -2    3    3   -0.006346    0.000000
   -4   -2   -2    4    3   -0.002846    0.000000
   -4   -2   -2    5    3   -0.000296    0.000000
   -4   -2   -2    6    3   -0.001380   -0.000000
   -4   -2   -2    7    3    0.001386   -0.000000
   -4   -2   -2    8    3    0.002115   -0.000000
   -4   -2   -2    9    3   -0.000795   -0.000000
   -4   -2   -2    1    4    0.000333   -0.000000
   -4   -2   -2    2    4   -0.004768   -0.000000
   -4   -2   -2    3    4   -0.002846   -0.000000
   -4   -2   -2    4    4    0.005726   -0.000000
   -4   -2   -2    5    4    0.001652    0.000000
   -4   -2   -2    6    4    0.000732   -0.000000
   -4   -2   -2    7    4    0.000530    0.000000
   -4   -2   -2    8    4    0.000414    0.000000
   -4   -2   -2    9    4   -0.001479   -0.000000
   -4   -2   -2    1    5   -0.000145   -0.000000
   -4   -2   -2    2    5   -0.000877   -0.000000
   -4   -2   -2    3    5    0.000296   -0.000000
   -4   -2   -2    4    5   -0.001652    0.000000
   -4   -2   -2    5    5    0.000341    0.000000
   -4   -2   -2    6    5   -0.000021    0.000000
   -4   -2   -2    7    5   -0.000588    0.000000
   -4   -2   -2    8    5    0.000267   -0.000000
   -4   -2   -2    9    5   -0.000180   -0.000000
   -4   -2   -2    1    6   -0.000122    0.000000
   -4   -2   -2    2    6    0.000602    0.000000
   -4   -2   -2    3    6    0.001380   -0.000000
   -4   -2   -2    4    6   -0.000732    0.000000
   -4   -2   -2    5    6   -0.000021    0.000000
   -4   -2   -2    6    6    0.000771   -0.000000
   -4   -2   -2    7    6    0.000522   -0.000000
   -4   -2   -2    8    6    0.000873   -0.000000
   -4   -2   -2    9    6   -0.000126   -0.000000
   -4   -2   -2    1    7   -0.000957   -0.000000
   -4   -2   -2    2    7   -0.002241   -0.000000
   -4   -2   -2    3    7   -0.001386    0.000000
   -4   -2   -2    4    7   -0.000530    0.000000
   -4   -2   -2    5    7   -0.000588    0.000000
   -4   -2   -2    6    7    0.000522   -0.000000
   -4   -2   -2    7    7    0.000085    0.000000
   -4   -2   -2    8    7    0.000083   -0.000000
   -4   -2   -2    9    7    0.000419    0.000000
   -4   -2   -2    1    8   -0.000839   -0.000000
   -4   -2   -2    2    8    0.000478   -0.000000
   -4   -2   -2    3    8   -0.002115    0.000000
   -4   -2   -2    4    8   -0.000414    0.000000
   -4   -2   -2    5    8    0.000267   -0.000000
   -4   -2   -2    6    8    0.000873   -0.000000
   -4   -2   -2    7    8    0.000083    0.000000
   -4   -2   -2    8    8    0.000513   -0.000000
   -4   -2   -2    9    8    0.000413   -0.000000
   -4   -2   -2    1    9   -0.000090   -0.000000
   -4   -2   -2    2    9   -0.000742    0.000000
   -4   -2   -2    3    9    0.000795    0.000000
   -4   -2   -2    4    9    0.001479   -0.000000
   -4   -2   -2    5    9   -0.000180   -0.000000
   -4   -2   -2    6    9   -0.000126   -0.000000
   -4   -2   -2    7    9    0.000419    0.000000
   -4   -2   -2    8    9    0.000413   -0.000000
   -4   -2   -2    9    9    0.000910   -0.000000
   -4   -2   -1    1    1   -0.000766   -0.000000
   -4   -2   -1    2    1   -0.000478   -0.000000
   -4   -2   -1    3    1    0.000026    0.000000
   -4   -2   -1    4    1   -0.000842   -0.000000
   -4   -2   -1    5    1    0.000202   -0.000000
   -4   -2   -1    6    1    0.001056    0.000000
   -4   -2   -1    7    1    0.000387    0.000000
   -4   -2   -1    8    1   -0.000816    0.000000
   -4   -2   -1    9    1   -0.000624   -0.000000
   -4   -2   -1    1    2    0.000478   -0.000000
   -4   -2   -1    2    2   -0.000804   -0.000000
   -4   -2   -1    3    2   -0.001614    0.000000
   -4   -2   -1    4    2    0.003365   -0.000000
   -4   -2   -1    5    2    0.000678   -0.000000
   -4   -2   -1    6    2   -0.000280   -0.000000
   -4   -2   -1    7    2    0.000398   -0.000000
   -4   -2   -1    8    2   -0.000582    0.000000
   -4   -2   -1    9    2   -0.000642   -0.000000
   -4   -2   -1    1    3   -0.000026   -0.000000
   -4   -2   -1    2    3   -0.001614    0.000000
   -4   -2   -1    3    3   -0.006512    0.000000
   -4   -2   -1    4    3    0.000812   -0.000000
   -4   -2   -1    5    3    0.000074   -0.000000
   -4   -2   -1    6    3    0.001330    0.000000
   -4   -2   -1    7    3    0.000035   -0.000000
   -4   -2   -1    8    3    0.000039    0.000000
   -4   -2   -1    9    3    0.002327    0.000000
   -4   -2   -1    1    4    0.000842   -0.000000
   -4   -2   -1    2    4    0.003365    0.000000
   -4   -2   -1    3    4    0.000812    0.000000
   -4   -2   -1    4    4    0.002998    0.000000
   -4   -2   -1    5    4    0.000325    0.000000
   -4   -2   -1    6    4    0.000292   -0.000000
   -4   -2   -1    7    4    0.000192   -0.000000
   -4   -2   -1    8    4   -0.001467   -0.000000
   -4   -2   -1    9    4    0.000310    0.000000
   -4   -2   -1    1    5    0.000202   -0.000000
   -4   -2   -1    2    5   -0.000678   -0.000000
   -4   -2   -1    3    5   -0.000074    0.000000
   -4   -2   -1    4    5   -0.000325    0.000000
   -4   -2   -1    5    5    0.000043    0.000000
   -4   -2   -1    6    5    0.000177   -0.000000
   -4   -2   -1    7    5    0.000803   -0.000000
   -4   -2   -1    8    5    0.000723   -0.000000
   -4   -2   -1    9    5    0.000306    0.000000
   -4   -2   -1    1    6    0.001056    0.000000
   -4   -2   -1    2    6    0.000280   -0.000000
   -4   -2   -1    3    6   -0.001330    0.000000
   -4   -2   -1    4    6   -0.000292   -0.000000
   -4   -2   -1    5    6    0.000177   -0.000000
   -4   -2   -1    6    6   -0.000432   -0.000000
   -4   -2   -1    7    6    0.000346   -0.000000
   -4   -2   -1    8    6   -0.000153   -0.000000
   -4   -2   -1    9    6    0.000823   -0.000000
   -4   -2   -1    1    7    0.000387   -0.000000
   -4   -2   -1    2    7   -0.000398   -0.000000
   -4   -2   -1    3    7   -0.000035    0.000000
   -4   -2   -1    4    7   -0.000192    0.000000
   -4   -2   -1    5    7    0.000803   -0.000000
   -4   -2   -1    6    7    0.000346    0.000000
   -4   -2   -1    7    7   -0.000171   -0.000000
   -4   -2   -1    8    7   -0.000038   -0.000000
   -4   -2   -1    9    7    0.000078   -0.000000
   -4   -2   -1    1    8   -0.000816   -0.000000
   -4   -2   -1    2    8    0.000582   -0.000000
   -4   -2   -1    3    8   -0.000039    0.000000
   -4   -2   -1    4    8    0.001467   -0.000000
   -4   -2   -1    5    8    0.000723   -0.000000
   -4   -2   -1    6    8   -0.000153    0.000000
   -4   -2   -1    7    8   -0.000038    0.000000
   -4   -2   -1    8    8   -0.000216    0.000000
   -4   -2   -1    9    8    0.000327   -0.000000
   -4   -2   -1    1    9   -0.000624    0.000000
   -4   -2   -1    2    9    0.000642    0.000000
   -4   -2   -1    3    9   -0.002327   -0.000000
   -4   -2   -1    4    9   -0.000310    0.000000
   -4   -2   -1    5    9    0.000306    0.000000
   -4   -2   -1    6    9    0.000823    0.000000
   -4   -2   -1    7    9    0.000078   -0.000000
   -4   -2   -1    8    9    0.000327    0.000000
   -4   -2   -1    9    9    0.000519    0.000000
   -4   -1   -3    1    1    0.000189    0.000000
   -4   -1   -3    2    1   -0.000028   -0.000000
   -4   -1   -3    3    1   -0.000397   -0.000000
   -4   -1   -3    4    1   -0.000488   -0.000000
   -4   -1   -3    5    1   -0.000132    0.000000
   -4   -1   -3    6    1   -0.000579   -0.000000
   -4   -1   -3    7    1    0.000419   -0.000000
   -4   -1   -3    8    1   -0.000087   -0.000000
   -4   -1   -3    9    1    0.000236    0.000000
   -4   -1   -3    1    2    0.000028    0.000000
   -4   -1   -3    2    2   -0.008924    0.000000
   -4   -1   -3    3    2   -0.000925    0.000000
   -4   -1   -3    4    2    0.000650    0.000000
   -4   -1   -3    5    2   -0.000013   -0.000000
   -4   -1   -3    6    2    0.001386    0.000000
   -4   -1   -3    7    2    0.001950    0.000000
   -4   -1   -3    8    2    0.000584    0.000000
   -4   -1   -3    9    2    0.000205   -0.000000
   -4   -1   -3    1    3    0.000397   -0.000000
   -4   -1   -3    2    3   -0.000925   -0.000000
   -4   -1   -3    3    3   -0.005754   -0.000000
   -4   -1   -3    4    3    0.004571   -0.000000
   -4   -1   -3    5    3   -0.001043    0.000000
   -4   -1   -3    6    3    0.000714   -0.000000
   -4   -1   -3    7    3    0.000133    0.000000
   -4   -1   -3    8    3    0.001208   -0.000000
   -4   -1   -3    9    3    0.002355   -0.000000
   -4   -1   -3    1    4    0.000488   -0.000000
   -4   -1   -3    2    4    0.000650   -0.000000
   -4   -1   -3    3    4    0.004571    0.000000
   -4   -1   -3    4    4   -0.002390   -0.000000
   -4   -1   -3    5    4   -0.001480    0.000000
   -4   -1   -3    6    4    0.000386    0.000000
   -4   -1   -3    7    4   -0.000704   -0.000000
   -4   -1   -3    8    4   -0.002116    0.000000
   -4   -1   -3    9    4    0.002009   -0.000000
   -4   -1   -3    1    5   -0.000132    0.000000
   -4   -1   -3    2    5    0.000013   -0.000000
   -4   -1   -3    3    5    0.001043    0.000000
   -4   -1   -3    4    5    0.001480    0.000000
   -4   -1   -3    5    5   -0.000079   -0.000000
   -4   -1   -3    6    5    0.000141    0.000000
   -4   -1   -3    7    5   -0.000102    0.000000
   -4   -1   -3    8    5    0.000092   -0.000000
   -4   -1   -3    9    5   -0.000258   -0.000000
   -4   -1   -3    1    6   -0.000579   -0.000000
   -4   -1   -3    2    6   -0.001386   -0.000000
   -4   -1   -3    3    6   -0.000714    0.000000
   -4   -1   -3    4    6   -0.000386    0.000000
   -4   -1   -3    5    6    0.000141   -0.000000
   -4   -1   -3    6    6   -0.000894    0.000000
   -4   -1   -3    7    6    0.000075    0.000000
   -4   -1   -3    8    6    0.000584    0.000000
   -4   -1   -3    9    6   -0.000058   -0.000000
   -4   -1   -3    1    7    0.000419   -0.000000
   -4   -1   -3    2    7   -0.001950    0.000000
   -4   -1   -3    3    7   -0.000133    0.000000
   -4   -1   -3    4    7    0.000704    0.000000
   -4   -1   -3    5    7   -0.000102    0.000000
   -4   -1   -3    6    7    0.000075    0.000000
   -4   -1   -3    7    7   -0.000840    0.000000
   -4   -1   -3    8    7    0.000650    0.000000
   -4   -1   -3    9    7    0.000413    0.000000
   -4   -1   -3    1    8   -0.000087   -0.000000
   -4   -1   -3    2    8   -0.000584    0.000000
   -4   -1   -3    3    8   -0.001208   -0.000000
   -4   -1   -3    4    8    0.002116    0.000000
   -4   -1   -3    5    8    0.000092   -0.000000
   -4   -1   -3    6    8    0.000584    0.000000
   -4   -1   -3    7    8    0.000650   -0.000000
   -4   -1   -3    8    8   -0.000663   -0.000000
   -4   -1   -3    9    8   -0.000315   -0.000000
   -4   -1   -3    1    9    0.000236   -0.000000
   -4   -1   -3    2    9   -0.000205    0.000000
   -4   -1   -3    3    9   -0.002355   -0.000000
   -4   -1   -3    4    9   -0.002009   -0.000000
   -4   -1   -3    5    9   -0.000258   -0.000000
   -4   -1   -3    6    9   -0.000058   -0.000000
   -4   -1   -3    7    9    0.000413    0.000000
   -4   -1   -3    8    9   -0.000315    0.000000
   -4   -1   -3    9    9    0.000105   -0.000000
   -4   -1   -2    1    1   -0.000796    0.000000
   -4   -1   -2    2    1   -0.001071   -0.000000
   -4   -1   -2    3    1    0.000000    0.000000
   -4   -1   -2    4    1   -0.000000    0.000000
   -4   -1   -2    5    1    0.000810   -0.000000
   -4   -1   -2    6    1   -0.000000   -0.000000
   -4   -1   -2    7    1   -0.000000    0.000000
   -4   -1   -2    8    1   -0.000470    0.000000
   -4   -1   -2    9    1    0.001254   -0.000000
   -4   -1   -2    1    2    0.001071    0.000000
   -4   -1   -2    2    2    0.004937   -0.000000
   -4   -1   -2    3    2    0.000000    0.000000
   -4   -1   -2    4    2    0.000000   -0.000000
   -4   -1   -2    5    2    0.001262   -0.000000
   -4   -1   -2    6    2   -0.000000   -0.000000
   -4   -1   -2    7    2   -0.000000    0.000000
   -4   -1   -2    8    2   -0.001188    0.000000
   -4   -1   -2    9    2    0.000059   -0.000000
   -4   -1   -2    1    3   -0.000000   -0.000000
   -4   -1   -2    2    3    0.000000   -0.000000
   -4   -1   -2    3    3   -0.006482    0.000000
   -4   -1   -2    4    3   -0.001850    0.000000
   -4   -1   -2    5    3   -0.000000   -0.000000
   -4   -1   -2    6    3    0.002707    0.000000
   -4   -1   -2    7    3    0.000064   -0.000000
   -4   -1   -2    8    3    0.000000   -0.000000
   -4   -1   -2    9    3   -0.000000   -0.000000
   -4   -1   -2    1    4    0.000000    0.000000
   -4   -1   -2    2    4    0.000000    0.000000
   -4   -1   -2    3    4   -0.001850   -0.000000
   -4   -1   -2    4    4   -0.002771   -0.000000
   -4   -1   -2    5    4    0.000000    0.000000
   -4   -1   -2    6    4   -0.000806   -0.000000
   -4   -1   -2    7    4    0.000506   -0.000000
   -4   -1   -2    8    4    0.000000   -0.000000
   -4   -1   -2    9    4   -0.000000   -0.000000
   -4   -1   -2    1    5    0.000810   -0.000000
   -4   -1   -2    2    5   -0.001262    0.000000
   -4   -1   -2    3    5    0.000000    0.000000
   -4   -1   -2    4    5   -0.000000    0.000000
   -4   -1   -2    5    5   -0.000167    0.000000
   -4   -1   -2    6    5    0.000000    0.000000
   -4   -1   -2    7    5    0.000000    0.000000
   -4   -1   -2    8    5   -0.000160   -0.000000
   -4   -1   -2    9    5    0.000401   -0.000000
   -4   -1   -2    1    6   -0.000000   -0.000000
   -4   -1   -2    2    6    0.000000    0.000000
   -4   -1   -2    3    6   -0.002707   -0.000000
   -4   -1   -2    4    6    0.000806   -0.000000
   -4   -1   -2    5    6    0.000000   -0.000000
   -4   -1   -2    6    6    0.001004   -0.000000
   -4   -1   -2    7    6    0.000484   -0.000000
   -4   -1   -2    8    6   -0.000000   -0.000000
   -4   -1   -2    9    6    0.000000    0.000000
   -4   -1   -2    1    7   -0.000000    0.000000
   -4   -1   -2    2    7    0.000000    0.000000
   -4   -1   -2    3    7   -0.000064    0.000000
   -4   -1   -2    4    7   -0.000506   -0.000000
   -4   -1   -2    5    7    0.000000   -0.000000
   -4   -1   -2    6    7    0.000484    0.000000
   -4   -1   -2    7    7    0.000992   -0.000000
   -4   -1   -2    8    7   -0.000000    0.000000
   -4   -1   -2    9    7    0.000000   -0.000000
   -4   -1   -2    1    8   -0.000470    0.000000
   -4   -1   -2    2    8    0.001188   -0.000000
   -4   -1   -2    3    8   -0.000000   -0.000000
   -4   -1   -2    4    8   -0.000000   -0.000000
   -4   -1   -2    5    8   -0.000160   -0.000000
   -4   -1   -2    6    8   -0.000000   -0.000000
   -4   -1   -2    7    8   -0.000000    0.000000
   -4   -1   -2    8    8   -0.001162    0.000000
   -4   -1   -2    9    8   -0.000067    0.000000
   -4   -1   -2    1    9    0.001254   -0.000000
   -4   -1   -2    2    9   -0.000059    0.000000
   -4   -1   -2    3    9    0.000000   -0.000000
   -4   -1   -2    4    9    0.000000    0.000000
   -4   -1   -2    5    9    0.000401    0.000000
   -4   -1   -2    6    9    0.000000    0.000000
   -4   -1   -2    7    9    0.000000   -0.000000
   -4   -1   -2    8    9   -0.000067    0.000000
   -4   -1   -2    9    9   -0.000895    0.000000
   -3   -4   -2    1    1   -0.000505   -0.000000
   -3   -4   -2    2    1    0.000908   -0.000000
   -3   -4   -2    3    1    0.000091    0.000000
   -3   -4   -2    4    1   -0.000936   -0.000000
   -3   -4   -2    5    1    0.000208    0.000000
   -3   -4   -2    6    1   -0.001062   -0.000000
   -3   -4   -2    7    1   -0.000395   -0.000000
   -3   -4   -2    8    1   -0.000800    0.000000
   -3   -4   -2    9    1   -0.000614    0.000000
   -3   -4   -2    1    2   -0.000908   -0.000000
   -3   -4   -2    2    2   -0.004312    0.000000
   -3   -4   -2    3    2    0.000229   -0.000000
   -3   -4   -2    4    2   -0.005521   -0.000000
   -3   -4   -2    5    2   -0.001237   -0.000000
   -3   -4   -2    6    2    0.000052    0.000000
   -3   -4   -2    7    2    0.001495    0.000000
   -3   -4   -2    8    2   -0.000697   -0.000000
   -3   -4   -2    9    2    0.000551   -0.000000
   -3   -4   -2    1    3   -0.000091    0.000000
   -3   -4   -2    2    3    0.000229   -0.000000
   -3   -4   -2    3    3   -0.002086    0.000000
   -3   -4   -2    4    3    0.000084    0.000000
   -3   -4   -2    5    3   -0.001067    0.000000
   -3   -4   -2    6    3   -0.000472   -0.000000
   -3   -4   -2    7    3    0.000711   -0.000000
   -3   -4   -2    8    3   -0.000598    0.000000
   -3   -4   -2    9    3    0.000818    0.000000
   -3   -4   -2    1    4    0.000936   -0.000000
   -3   -4   -2    2    4   -0.005521    0.000000
   -3   -4   -2    3    4    0.000084    0.000000
   -3   -4   -2    4    4    0.001881   -0.000000
   -3   -4   -2    5    4   -0.001462    0.000000
   -3   -4   -2    6    4   -0.000692    0.000000
   -3   -4   -2    7    4   -0.000458   -0.000000
   -3   -4   -2    8    4   -0.000744    0.000000
   -3   -4   -2    9    4   -0.000101    0.000000
   -3   -4   -2    1    5    0.000208    0.000000
   -3   -4   -2    2    5    0.001237    0.000000
   -3   -4   -2    3    5    0.001067   -0.000000
   -3   -4   -2    4    5    0.001462    0.000000
   -3   -4   -2    5    5    0.000231    0.000000
   -3   -4   -2    6    5   -0.000163   -0.000000
   -3   -4   -2    7    5   -0.000894    0.000000
   -3   -4   -2    8    5    0.000801   -0.000000
   -3   -4   -2    9    5    0.000231   -0.000000
   -3   -4   -2    1    6   -0.001062   -0.000000
   -3   -4   -2    2    6   -0.000052   -0.000000
   -3   -4   -2    3    6    0.000472    0.000000
   -3   -4   -2    4    6    0.000692    0.000000
   -3   -4   -2    5    6   -0.000163   -0.000000
   -3   -4   -2    6    6   -0.000531    0.000000
   -3   -4   -2    7    6    0.000288    0.000000
   -3   -4   -2    8    6    0.000209    0.000000
   -3   -4   -2    9    6   -0.000711    0.000000
   -3   -4   -2    1    7   -0.000395   -0.000000
   -3   -4   -2    2    7   -0.001495    0.000000
   -3   -4   -2    3    7   -0.000711    0.000000
   -3   -4   -2    4    7    0.000458   -0.000000
   -3   -4   -2    5    7   -0.000894   -0.000000
   -3   -4   -2    6    7    0.000288    0.000000
   -3   -4   -2    7    7   -0.000134   -0.000000
   -3   -4   -2    8    7   -0.000045    0.000000
   -3   -4   -2    9    7   -0.000050   -0.000000
   -3   -4   -2    1    8   -0.000800    0.000000
   -3   -4   -2    2    8    0.000697    0.000000
   -3   -4   -2    3    8    0.000598   -0.000000
   -3   -4   -2    4    8    0.000744    0.000000
   -3   -4   -2    5    8    0.000801   -0.000000
   -3   -4   -2    6    8    0.000209    0.000000
   -3   -4   -2    7    8   -0.000045    0.000000
   -3   -4   -2    8    8   -0.000165    0.000000
   -3   -4   -2    9    8    0.000305   -0.000000
   -3   -4   -2    1    9   -0.000614    0.000000
   -3   -4   -2    2    9   -0.000551   -0.000000
   -3   -4   -2    3    9   -0.000818    0.000000
   -3   -4   -2    4    9    0.000101    0.000000
   -3   -4   -2    5    9    0.000231   -0.000000
   -3   -4   -2    6    9   -0.000711   -0.000000
   -3   -4   -2    7    9   -0.000050   -0.000000
   -3   -4   -2    8    9    0.000305   -0.000000
   -3   -4   -2    9    9    0.000282   -0.000000
   -3   -4   -1    1    1    0.000187   -0.000000
   -3   -4   -1    2    1   -0.000372    0.000000
   -3   -4   -1    3    1    0.000314   -0.000000
   -3   -4   -1    4    1   -0.000355   -0.000000
   -3   -4   -1    5    1    0.000392   -0.000000
   -3   -4   -1    6    1    0.000081   -0.000000
   -3   -4   -1    7    1   -0.000082   -0.000000
   -3   -4   -1    8    1    0.000207    0.000000
   -3   -4   -1    9    1   -0.000584   -0.000000
   -3   -4   -1    1    2    0.000372    0.000000
   -3   -4   -1    2    2   -0.003499    0.000000
   -3   -4   -1    3    2   -0.003502   -0.000000
   -3   -4   -1    4    2    0.002457    0.000000
   -3   -4   -1    5    2    0.001452   -0.000000
   -3   -4   -1    6    2   -0.002104    0.000000
   -3   -4   -1    7    2    0.001482   -0.000000
   -3   -4   -1    8    2    0.000005    0.000000
   -3   -4   -1    9    2   -0.000020    0.000000
   -3   -4   -1    1    3   -0.000314    0.000000
   -3   -4   -1    2    3   -0.003502   -0.000000
   -3   -4   -1    3    3   -0.005613    0.000000
   -3   -4   -1    4    3   -0.003129   -0.000000
   -3   -4   -1    5    3    0.000546    0.000000
   -3   -4   -1    6    3    0.002398   -0.000000
   -3   -4   -1    7    3   -0.000243    0.000000
   -3   -4   -1    8    3   -0.001489    0.000000
   -3   -4   -1    9    3    0.000571   -0.000000
   -3   -4   -1    1    4    0.000355   -0.000000
   -3   -4   -1    2    4    0.002457   -0.000000
   -3   -4   -1    3    4   -0.003129   -0.000000
   -3   -4   -1    4    4   -0.007938   -0.000000
   -3   -4   -1    5    4   -0.000401    0.000000
   -3   -4   -1    6    4   -0.000163    0.000000
   -3   -4   -1    7    4    0.002268   -0.000000
   -3   -4   -1    8    4   -0.001410    0.000000
   -3   -4   -1    9    4   -0.001226    0.000000
   -3   -4   -1    1    5    0.000392    0.000000
   -3   -4   -1    2    5   -0.001452   -0.000000
   -3   -4   -1    3    5   -0.000546    0.000000
   -3   -4   -1    4    5    0.000401   -0.000000
   -3   -4   -1    5    5   -0.001354    0.000000
   -3   -4   -1    6    5   -0.000307   -0.000000
   -3   -4   -1    7    5    0.000217   -0.000000
   -3   -4   -1    8    5    0.000203   -0.000000
   -3   -4   -1    9    5   -0.000570   -0.000000
   -3   -4   -1    1    6    0.000081   -0.000000
   -3   -4   -1    2    6    0.002104    0.000000
   -3   -4   -1    3    6   -0.002398   -0.000000
   -3   -4   -1    4    6    0.000163    0.000000
   -3   -4   -1    5    6   -0.000307   -0.000000
   -3   -4   -1    6    6   -0.000198   -0.000000
   -3   -4   -1    7    6    0.000079    0.000000
   -3   -4   -1    8    6   -0.000283   -0.000000
   -3   -4   -1    9    6    0.000471    0.000000
   -3   -4   -1    1    7   -0.000082   -0.000000
   -3   -4   -1    2    7   -0.001482    0.000000
   -3   -4   -1    3    7    0.000243   -0.000000
   -3   -4   -1    4    7   -0.002268   -0.000000
   -3   -4   -1    5    7    0.000217    0.000000
   -3   -4   -1    6    7    0.000079    0.000000
   -3   -4   -1    7    7   -0.000145   -0.000000
   -3   -4   -1    8    7   -0.000018    0.000000
   -3   -4   -1    9    7   -0.000403    0.000000
   -3   -4   -1    1    8    0.000207   -0.000000
   -3   -4   -1    2    8   -0.000005   -0.000000
   -3   -4   -1    3    8    0.001489   -0.000000
   -3   -4   -1    4    8    0.001410   -0.000000
   -3   -4   -1    5    8    0.000203   -0.000000
   -3   -4   -1    6    8   -0.000283    0.000000
   -3   -4   -1    7    8   -0.000018   -0.000000
   -3   -4   -1    8    8   -0.000113    0.000000
   -3   -4   -1    9    8    0.000181    0.000000
   -3   -4   -1    1    9   -0.000584    0.000000
   -3   -4   -1    2    9    0.000020   -0.000000
   -3   -4   -1    3    9   -0.000571    0.000000
   -3   -4   -1    4    9    0.001226    0.000000
   -3   -4   -1    5    9   -0.000570   -0.000000
   -3   -4   -1    6    9    0.000471    0.000000
   -3   -4   -1    7    9   -0.000403    0.000000
   -3   -4   -1    8    9    0.000181    0.000000
   -3   -4   -1    9    9   -0.000577   -0.000000
   -3   -3   -3    1    1    0.001732   -0.000000
   -3   -3   -3    2    1    0.000000   -0.000000
   -3   -3   -3    3    1    0.000000    0.000000
   -3   -3   -3    4    1   -0.000000    0.000000
   -3   -3   -3    5    1   -0.000053    0.000000
   -3   -3   -3    6    1    0.000025   -0.000000
   -3   -3   -3    7    1    0.000001    0.000000
   -3   -3   -3    8    1   -0.000027   -0.000000
   -3   -3   -3    9    1    0.000065   -0.000000
   -3   -3   -3    1    2    0.000000    0.000000
   -3   -3   -3    2    2    0.002723   -0.000000
   -3   -3   -3    3    2    0.002202   -0.000000
   -3   -3   -3    4    2    0.003196    0.000000
   -3   -3   -3    5    2    0.000000   -0.000000
   -3   -3   -3    6    2   -0.000000    0.000000
   -3   -3   -3    7    2    0.000000    0.000000
   -3   -3   -3    8    2   -0.000000   -0.000000
   -3   -3   -3    9    2   -0.000000   -0.000000
   -3   -3   -3    1    3    0.000000   -0.000000
   -3   -3   -3    2    3    0.002202    0.000000
   -3   -3   -3    3    3   -0.002583   -0.000000
   -3   -3   -3    4    3    0.001170    0.000000
   -3   -3   -3    5    3    0.000000    0.000000
   -3   -3   -3    6    3    0.000000    0.000000
   -3   -3   -3    7    3    0.000000    0.000000
   -3   -3   -3    8    3   -0.000000    0.000000
   -3   -3   -3    9    3   -0.000000    0.000000
   -3   -3   -3    1    4   -0.000000   -0.000000
   -3   -3   -3    2    4    0.003196   -0.000000
   -3   -3   -3    3    4    0.001170   -0.000000
   -3   -3   -3    4    4   -0.001716   -0.000000
   -3   -3   -3    5    4   -0.000000   -0.000000
   -3   -3   -3    6    4    0.000000    0.000000
   -3   -3   -3    7    4    0.000000    0.000000
   -3   -3   -3    8    4   -0.000000   -0.000000
   -3   -3   -3    9    4   -0.000000   -0.000000
   -3   -3   -3    1    5   -0.000053   -0.000000
   -3   -3   -3    2    5    0.000000    0.000000
   -3   -3   -3    3    5    0.000000   -0.000000
   -3   -3   -3    4    5   -0.000000    0.000000
   -3   -3   -3    5    5   -0.000985   -0.000000
   -3   -3   -3    6    5   -0.001131   -0.000000
   -3   -3   -3    7    5   -0.001609   -0.000000
   -3   -3   -3    8    5    0.000050    0.000000
   -3   -3   -3    9    5   -0.000141   -0.000000
   -3   -3   -3    1    6    0.000025    0.000000
   -3   -3   -3    2    6   -0.000000   -0.000000
   -3   -3   -3    3    6    0.000000   -0.000000
   -3   -3   -3    4    6    0.000000   -0.000000
   -3   -3   -3    5    6   -0.001131    0.000000
   -3   -3   -3    6    6   -0.001622   -0.000000
   -3   -3   -3    7    6   -0.000686   -0.000000
   -3   -3   -3    8    6    0.000415    0.000000
   -3   -3   -3    9    6   -0.000335    0.000000
   -3   -3   -3    1    7    0.000001   -0.000000
   -3   -3   -3    2    7    0.000000   -0.000000
   -3   -3   -3    3    7    0.000000   -0.000000
   -3   -3   -3    4    7    0.000000   -0.000000
   -3   -3   -3    5    7   -0.001609    0.000000
   -3   -3   -3    6    7   -0.000686    0.000000
   -3   -3   -3    7    7   -0.002116   -0.000000
   -3   -3   -3    8    7    0.000028    0.000000
   -3   -3   -3    9    7   -0.000675    0.000000
   -3   -3   -3    1    8   -0.000027    0.000000
   -3   -3   -3    2    8   -0.000000    0.000000
   -3   -3   -3    3    8   -0.000000   -0.000000
   -3   -3   -3    4    8   -0.000000    0.000000
   -3   -3   -3    5    8    0.000050   -0.000000
   -3   -3   -3    6    8    0.000415   -0.000000
   -3   -3   -3    7    8    0.000028   -0.000000
   -3   -3   -3    8    8    0.000119   -0.000000
   -3   -3   -3    9    8    0.000515   -0.000000
   -3   -3   -3    1    9    0.000065    0.000000
   -3   -3   -3    2    9   -0.000000    0.000000
   -3   -3   -3    3    9   -0.000000   -0.000000
   -3   -3   -3    4    9   -0.000000    0.000000
   -3   -3   -3    5    9   -0.000141    0.000000
   -3   -3   -3    6    9   -0.000335   -0.000000
   -3   -3   -3    7    9   -0.000675   -0.000000
   -3   -3   -3    8    9    0.000515    0.000000
   -3   -3   -3    9    9   -0.001152   -0.000000
   -3   -3   -2    1    1   -0.002327    0.000000
   -3   -3   -2    2    1   -0.002088    0.000000
   -3   -3   -2    3    1   -0.000198    0.000000
   -3   -3   -2    4    1   -0.000181   -0.000000
   -3   -3   -2    5    1   -0.000411   -0.000000
   -3   -3   -2    6    1   -0.001094    0.000000
   -3   -3   -2    7    1   -0.001540    0.000000
   -3   -3   -2    8    1   -0.000141   -0.000000
   -3   -3   -2    9    1    0.000415    0.000000
   -3   -3   -2    1    2    0.002088    0.000000
   -3   -3   -2    2    2    0.007130    0.000000
   -3   -3   -2    3    2   -0.001167    0.000000
   -3   -3   -2    4    2   -0.001612    0.000000
   -3   -3   -2    5    2   -0.001162   -0.000000
   -3   -3   -2    6    2    0.000318   -0.000000
   -3   -3   -2    7    2    0.000457    0.000000
   -3   -3   -2    8    2   -0.000412   -0.000000
   -3   -3   -2    9    2    0.001137    0.000000
   -3   -3   -2    1    3    0.000198    0.000000
   -3   -3   -2    2    3   -0.001167   -0.000000
   -3   -3   -2    3    3    0.000364   -0.000000
   -3   -3   -2    4    3   -0.002015    0.000000
   -3   -3   -2    5    3   -0.001467   -0.000000
   -3   -3   -2    6    3    0.001038   -0.000000
   -3   -3   -2    7    3   -0.002934   -0.000000
   -3   -3   -2    8    3    0.001173   -0.000000
   -3   -3   -2    9    3   -0.000863   -0.000000
   -3   -3   -2    1    4    0.000181    0.000000
   -3   -3   -2    2    4   -0.001612   -0.000000
   -3   -3   -2    3    4   -0.002015    0.000000
   -3   -3   -2    4    4   -0.000965   -0.000000
   -3   -3   -2    5    4   -0.002124   -0.000000
   -3   -3   -2    6    4   -0.002964    0.000000
   -3   -3   -2    7    4   -0.001104    0.000000
   -3   -3   -2    8    4    0.000009    0.000000
   -3   -3   -2    9    4   -0.001787    0.000000
   -3   -3   -2    1    5   -0.000411    0.000000
   -3   -3   -2    2    5    0.001162   -0.000000
   -3   -3   -2    3    5    0.001467    0.000000
   -3   -3   -2    4    5    0.002124    0.000000
   -3   -3   -2    5    5   -0.002073    0.000000
   -3   -3   -2    6    5    0.000015   -0.000000
   -3   -3   -2    7    5    0.000021    0.000000
   -3   -3   -2    8    5    0.000134   -0.000000
   -3   -3   -2    9    5   -0.000371    0.000000
   -3   -3   -2    1    6   -0.001094    0.000000
   -3   -3   -2    2    6   -0.000318   -0.000000
   -3   -3   -2    3    6   -0.001038    0.000000
   -3   -3   -2    4    6    0.002964   -0.000000
   -3   -3   -2    5    6    0.000015    0.000000
   -3   -3   -2    6    6    0.000527    0.000000
   -3   -3   -2    7    6   -0.000147    0.000000
   -3   -3   -2    8    6   -0.000101   -0.000000
   -3   -3   -2    9    6   -0.000330   -0.000000
   -3   -3   -2    1    7   -0.001540    0.000000
   -3   -3   -2    2    7   -0.000457   -0.000000
   -3   -3   -2    3    7    0.002934    0.000000
   -3   -3   -2    4    7    0.001104   -0.000000
   -3   -3   -2    5    7    0.000021    0.000000
   -3   -3   -2    6    7   -0.000147    0.000000
   -3   -3   -2    7    7    0.000428    0.000000
   -3   -3   -2    8    7    0.000275   -0.000000
   -3   -3   -2    9    7   -0.000313    0.000000
   -3   -3   -2    1    8   -0.000141    0.000000
   -3   -3   -2    2    8    0.000412   -0.000000
   -3   -3   -2    3    8   -0.001173    0.000000
   -3   -3   -2    4    8   -0.000009   -0.000000
   -3   -3   -2    5    8    0.000134   -0.000000
   -3   -3   -2    6    8   -0.000101    0.000000
   -3   -3   -2    7    8    0.000275   -0.000000
   -3   -3   -2    8    8   -0.000395   -0.000000
   -3   -3   -2    9    8   -0.000348   -0.000000
   -3   -3   -2    1    9    0.000415   -0.000000
   -3   -3   -2    2    9   -0.001137   -0.000000
   -3   -3   -2    3    9    0.000863    0.000000
   -3   -3   -2    4    9    0.001787    0.000000
   -3   -3   -2    5    9   -0.000371    0.000000
   -3   -3   -2    6    9   -0.000330    0.000000
   -3   -3   -2    7    9   -0.000313    0.000000
   -3   -3   -2    8    9   -0.000348   -0.000000
   -3   -3   -2    9    9    0.000493   -0.000000
   -3   -3   -1    1    1   -0.004944    0.000000
   -3   -3   -1    2    1    0.002694   -0.000000
   -3   -3   -1    3    1    0.001267    0.000000
   -3   -3   -1    4    1    0.001749    0.000000
   -3   -3   -1    5    1   -0.001278    0.000000
   -3   -3   -1    6    1    0.000256    0.000000
   -3   -3   -1    7    1    0.000418   -0.000000
   -3   -3   -1    8    1    0.000009    0.000000
   -3   -3   -1    9    1   -0.000088   -0.000000
   -3   -3   -1    1    2   -0.002694    0.000000
   -3   -3   -1    2    2    0.009783   -0.000000
   -3   -3   -1    3    2    0.000976    0.000000
   -3   -3   -1    4    2    0.001371    0.000000
   -3   -3   -1    5    2   -0.000497    0.000000
   -3   -3   -1    6    2   -0.000344    0.000000
   -3   -3   -1    7    2   -0.000498   -0.000000
   -3   -3   -1    8    2   -0.000230    0.000000
   -3   -3   -1    9    2    0.000722   -0.000000
   -3   -3   -1    1    3   -0.001267    0.000000
   -3   -3   -1    2    3    0.000976    0.000000
   -3   -3   -1    3    3    0.001701   -0.000000
   -3   -3   -1    4    3    0.004762   -0.000000
   -3   -3   -1    5    3    0.001221   -0.000000
   -3   -3   -1    6    3   -0.002351   -0.000000
   -3   -3   -1    7    3    0.002495    0.000000
   -3   -3   -1    8    3   -0.000997    0.000000
   -3   -3   -1    9    3    0.000698   -0.000000
   -3   -3   -1    1    4   -0.001749    0.000000
   -3   -3   -1    2    4    0.001371    0.000000
   -3   -3   -1    3    4    0.004762   -0.000000
   -3   -3   -1    4    4    0.005251    0.000000
   -3   -3   -1    5    4    0.001742    0.000000
   -3   -3   -1    6    4    0.002473   -0.000000
   -3   -3   -1    7    4   -0.000546   -0.000000
   -3   -3   -1    8    4    0.000016    0.000000
   -3   -3   -1    9    4    0.001520   -0.000000
   -3   -3   -1    1    5   -0.001278    0.000000
   -3   -3   -1    2    5    0.000497   -0.000000
   -3   -3   -1    3    5   -0.001221   -0.000000
   -3   -3   -1    4    5   -0.001742   -0.000000
   -3   -3   -1    5    5    0.001072   -0.000000
   -3   -3   -1    6    5    0.000264    0.000000
   -3   -3   -1    7    5    0.000361    0.000000
   -3   -3   -1    8    5    0.000469    0.000000
   -3   -3   -1    9    5   -0.001276   -0.000000
   -3   -3   -1    1    6    0.000256    0.000000
   -3   -3   -1    2    6    0.000344    0.000000
   -3   -3   -1    3    6    0.002351   -0.000000
   -3   -3   -1    4    6   -0.002473    0.000000
   -3   -3   -1    5    6    0.000264   -0.000000
   -3   -3   -1    6    6    0.000864    0.000000
   -3   -3   -1    7    6   -0.000011   -0.000000
   -3   -3   -1    8    6   -0.000556    0.000000
   -3   -3   -1    9    6    0.000546   -0.000000
   -3   -3   -1    1    7    0.000418   -0.000000
   -3   -3   -1    2    7    0.000498   -0.000000
   -3   -3   -1    3    7   -0.002495   -0.000000
   -3   -3   -1    4    7    0.000546    0.000000
   -3   -3   -1    5    7    0.000361    0.000000
   -3   -3   -1    6    7   -0.000011    0.000000
   -3   -3   -1    7    7    0.000857    0.000000
   -3   -3   -1    8    7   -0.000093    0.000000
   -3   -3   -1    9    7    0.000996    0.000000
   -3   -3   -1    1    8    0.000009    0.000000
   -3   -3   -1    2    8    0.000230   -0.000000
   -3   -3   -1    3    8    0.000997    0.000000
   -3   -3   -1    4    8   -0.000016   -0.000000
   -3   -3   -1    5    8    0.000469    0.000000
   -3   -3   -1    6    8   -0.000556    0.000000
   -3   -3   -1    7    8   -0.000093    0.000000
   -3   -3   -1    8    8   -0.000428   -0.000000
   -3   -3   -1    9    8   -0.000443   -0.000000
   -3   -3   -1    1    9   -0.000088   -0.000000
   -3   -3   -1    2    9   -0.000722    0.000000
   -3   -3   -1    3    9   -0.000698    0.000000
   -3   -3   -1    4    9   -0.001520    0.000000
   -3   -3   -1    5    9   -0.001276   -0.000000
   -3   -3   -1    6    9    0.000546    0.000000
   -3   -3   -1    7    9    0.000996    0.000000
   -3   -3   -1    8    9   -0.000443   -0.000000
   -3   -3   -1    9    9    0.000664    0.000000
   -3   -3    0    1    1    0.008114    0.000000
   -3   -3    0    2    1    0.000000   -0.000000
   -3   -3    0    3    1    0.000000    0.000000
   -3   -3    0    4    1    0.000000    0.000000
   -3   -3    0    5    1    0.000547    0.000000
   -3   -3    0    6    1   -0.000000   -0.000000
   -3   -3    0    7    1   -0.000000    0.000000
   -3   -3    0    8    1    0.000322   -0.000000
   -3   -3    0    9    1   -0.001023   -0.000000
   -3   -3    0    1    2    0.000000    0.000000
   -3   -3    0    2    2   -0.004667    0.000000
   -3   -3    0    3    2   -0.000000   -0.000000
   -3   -3    0    4    2   -0.000000   -0.000000
   -3   -3    0    5    2    0.000000    0.000000
   -3   -3    0    6    2    0.000000    0.000000
   -3   -3    0    7    2    0.000000    0.000000
   -3   -3    0    8    2    0.000000    0.000000
   -3   -3    0    9    2   -0.000000   -0.000000
   -3   -3    0    1    3    0.000000   -0.000000
   -3   -3    0    2    3   -0.000000    0.000000
   -3   -3    0    3    3   -0.000390    0.000000
   -3   -3    0    4    3    0.006342   -0.000000
   -3   -3    0    5    3    0.000000    0.000000
   -3   -3    0    6    3    0.000000   -0.000000
   -3   -3    0    7    3   -0.000000   -0.000000
   -3   -3    0    8    3    0.000000   -0.000000
   -3   -3    0    9    3    0.000000    0.000000
   -3   -3    0    1    4    0.000000   -0.000000
   -3   -3    0    2    4   -0.000000    0.000000
   -3   -3    0    3    4    0.006342    0.000000
   -3   -3    0    4    4    0.004182    0.000000
   -3   -3    0    5    4   -0.000000    0.000000
   -3   -3    0    6    4    0.000000   -0.000000
   -3   -3    0    7    4    0.000000   -0.000000
   -3   -3    0    8    4    0.000000   -0.000000
   -3   -3    0    9    4   -0.000000    0.000000
   -3   -3    0    1    5    0.000547   -0.000000
   -3   -3    0    2    5    0.000000   -0.000000
   -3   -3    0    3    5    0.000000   -0.000000
   -3   -3    0    4    5   -0.000000   -0.000000
   -3   -3    0    5    5    0.001907    0.000000
   -3   -3    0    6    5    0.000000    0.000000
   -3   -3    0    7    5   -0.000000    0.000000
   -3   -3    0    8    5   -0.000766   -0.000000
   -3   -3    0    9    5    0.002138    0.000000
   -3   -3    0    1    6   -0.000000    0.000000
   -3   -3    0    2    6    0.000000   -0.000000
   -3   -3    0    3    6    0.000000    0.000000
   -3   -3    0    4    6    0.000000    0.000000
   -3   -3    0    5    6    0.000000   -0.000000
   -3   -3    0    6    6   -0.001570    0.000000
   -3   -3    0    7    6    0.001059    0.000000
   -3   -3    0    8    6    0.000000    0.000000
   -3   -3    0    9    6    0.000000    0.000000
   -3   -3    0    1    7   -0.000000   -0.000000
   -3   -3    0    2    7    0.000000   -0.000000
   -3   -3    0    3    7   -0.000000    0.000000
   -3   -3    0    4    7    0.000000    0.000000
   -3   -3    0    5    7   -0.000000   -0.000000
   -3   -3    0    6    7    0.001059   -0.000000
   -3   -3    0    7    7   -0.000820    0.000000
   -3   -3    0    8    7   -0.000000    0.000000
   -3   -3    0    9    7   -0.000000    0.000000
   -3   -3    0    1    8    0.000322    0.000000
   -3   -3    0    2    8    0.000000   -0.000000
   -3   -3    0    3    8    0.000000    0.000000
   -3   -3    0    4    8    0.000000    0.000000
   -3   -3    0    5    8   -0.000766    0.000000
   -3   -3    0    6    8    0.000000   -0.000000
   -3   -3    0    7    8   -0.000000   -0.000000
   -3   -3    0    8    8   -0.000160    0.000000
   -3   -3    0    9    8    0.000241    0.000000
   -3   -3    0    1    9   -0.001023    0.000000
   -3   -3    0    2    9   -0.000000    0.000000
   -3   -3    0    3    9    0.000000   -0.000000
   -3   -3    0    4    9   -0.000000   -0.000000
   -3   -3    0    5    9    0.002138   -0.000000
   -3   -3    0    6    9    0.000000   -0.000000
   -3   -3    0    7    9   -0.000000   -0.000000
   -3   -3    0    8    9    0.000241   -0.000000
   -3   -3    0    9    9   -0.000674    0.000000
   -3   -2   -3    1    1   -0.001886    0.000000
   -3   -2   -3    2    1   -0.001373    0.000000
   -3   -2   -3    3    1   -0.000404    0.000000
   -3   -2   -3    4    1   -0.001851   -0.000000
   -3   -2   -3    5    1   -0.000952    0.000000
   -3   -2   -3    6    1   -0.000092   -0.000000
   -3   -2   -3    7    1   -0.001040   -0.000000
   -3   -2   -3    8    1   -0.000510    0.000000
   -3   -2   -3    9    1   -0.001094    0.000000
   -3   -2   -3    1    2    0.001373    0.000000
   -3   -2   -3    2    2   -0.000646   -0.000000
   -3   -2   -3    3    2   -0.002471    0.000000
   -3   -2   -3    4    2    0.002477    0.000000
   -3   -2   -3    5    2   -0.000041   -0.000000
   -3   -2   -3    6    2   -0.001930    0.000000
   -3   -2   -3    7    2   -0.002183   -0.000000
   -3   -2   -3    8    2    0.001145    0.000000
   -3   -2   -3    9    2   -0.001589   -0.000000
   -3   -2   -3    1    3    0.000404    0.000000
   -3   -2   -3    2    3   -0.002471   -0.000000
   -3   -2   -3    3    3    0.000288   -0.000000
   -3   -2   -3    4    3   -0.000218    0.000000
   -3   -2   -3    5    3   -0.002754    0.000000
   -3   -2   -3    6    3   -0.000248   -0.000000
   -3   -2   -3    7    3   -0.002094   -0.000000
   -3   -2   -3    8    3    0.000396   -0.000000
   -3   -2   -3    9    3    0.001324   -0.000000
   -3   -2   -3    1    4    0.001851   -0.000000
   -3   -2   -3    2    4    0.002477   -0.000000
   -3   -2   -3    3    4   -0.000218    0.000000
   -3   -2   -3    4    4    0.006499   -0.000000
   -3   -2   -3    5    4    0.000945    0.000000
   -3   -2   -3    6    4    0.002549    0.000000
   -3   -2   -3    7    4    0.000227    0.000000
   -3   -2   -3    8    4    0.000193   -0.000000
   -3   -2   -3    9    4    0.000560    0.000000
   -3   -2   -3    1    5   -0.000952    0.000000
   -3   -2   -3    2    5    0.000041    0.000000
   -3   -2   -3    3    5    0.002754   -0.000000
   -3   -2   -3    4    5   -0.000945   -0.000000
   -3   -2   -3    5    5   -0.000226   -0.000000
   -3   -2   -3    6    5    0.000002    0.000000
   -3   -2   -3    7    5    0.000417    0.000000
   -3   -2   -3    8    5    0.000200    0.000000
   -3   -2   -3    9    5   -0.000051    0.000000
   -3   -2   -3    1    6   -0.000092   -0.000000
   -3   -2   -3    2    6    0.001930   -0.000000
   -3   -2   -3    3    6    0.000248    0.000000
   -3   -2   -3    4    6   -0.002549   -0.000000
   -3   -2   -3    5    6    0.000002    0.000000
   -3   -2   -3    6    6    0.000200    0.000000
   -3   -2   -3    7    6   -0.000548    0.000000
   -3   -2   -3    8    6   -0.000190   -0.000000
   -3   -2   -3    9    6   -0.000157    0.000000
   -3   -2   -3    1    7   -0.001040    0.000000
   -3   -2   -3    2    7    0.002183   -0.000000
   -3   -2   -3    3    7    0.002094    0.000000
   -3   -2   -3    4    7   -0.000227   -0.000000
   -3   -2   -3    5    7    0.000417    0.000000
   -3   -2   -3    6    7   -0.000548    0.000000
   -3   -2   -3    7    7   -0.000902    0.000000
   -3   -2   -3    8    7    0.001156   -0.000000
   -3   -2   -3    9    7    0.000183   -0.000000
   -3   -2   -3    1    8   -0.000510    0.000000
   -3   -2   -3    2    8   -0.001145   -0.000000
   -3   -2   -3    3    8   -0.000396    0.000000
   -3   -2   -3    4    8   -0.000193    0.000000
   -3   -2   -3    5    8    0.000200    0.000000
   -3   -2   -3    6    8   -0.000190   -0.000000
   -3   -2   -3    7    8    0.001156   -0.000000
   -3   -2   -3    8    8   -0.000927   -0.000000
   -3   -2   -3    9    8   -0.000057    0.000000
   -3   -2   -3    1    9   -0.001094    0.000000
   -3   -2   -3    2    9    0.001589   -0.000000
   -3   -2   -3    3    9   -0.001324    0.000000
   -3   -2   -3    4    9   -0.000560    0.000000
   -3   -2   -3    5    9   -0.000051   -0.000000
   -3   -2   -3    6    9   -0.000157   -0.000000
   -3   -2   -3    7    9    0.000183   -0.000000
   -3   -2   -3    8    9   -0.000057    0.000000
   -3   -2   -3    9    9    0.000785    0.000000
   -3   -2   -2    1    1    0.009406    0.000000
   -3   -2   -2    2    1   -0.003161   -0.000000
   -3   -2   -2    3    1    0.000973    0.000000
   -3   -2   -2    4    1   -0.001881   -0.000000
   -3   -2   -2    5    1    0.001641    0.000000
   -3   -2   -2    6    1    0.002849    0.000000
   -3   -2   -2    7    1    0.002421    0.000000
   -3   -2   -2    8    1    0.000014   -0.000000
   -3   -2   -2    9    1    0.001633   -0.000000
   -3   -2   -2    1    2    0.003161   -0.000000
   -3   -2   -2    2    2   -0.006032   -0.000000
   -3   -2   -2    3    2   -0.003358   -0.000000
   -3   -2   -2    4    2    0.001037    0.000000
   -3   -2   -2    5    2   -0.000427   -0.000000
   -3   -2   -2    6    2    0.004086   -0.000000
   -3   -2   -2    7    2   -0.000362   -0.000000
   -3   -2   -2    8    2    0.000066    0.000000
   -3   -2   -2    9    2    0.000987   -0.000000
   -3   -2   -2    1    3   -0.000973   -0.000000
   -3   -2   -2    2    3   -0.003358   -0.000000
   -3   -2   -2    3    3   -0.001649    0.000000
   -3   -2   -2    4    3   -0.001816   -0.000000
   -3   -2   -2    5    3    0.002507   -0.000000
   -3   -2   -2    6    3    0.000919   -0.000000
   -3   -2   -2    7    3    0.002011    0.000000
   -3   -2   -2    8    3   -0.002008   -0.000000
   -3   -2   -2    9    3    0.000513   -0.000000
   -3   -2   -2    1    4    0.001881    0.000000
   -3   -2   -2    2    4    0.001037    0.000000
   -3   -2   -2    3    4   -0.001816   -0.000000
   -3   -2   -2    4    4   -0.007362   -0.000000
   -3   -2   -2    5    4    0.000030   -0.000000
   -3   -2   -2    6    4    0.000946    0.000000
   -3   -2   -2    7    4   -0.000320    0.000000
   -3   -2   -2    8    4    0.000095    0.000000
   -3   -2   -2    9    4    0.002916    0.000000
   -3   -2   -2    1    5    0.001641    0.000000
   -3   -2   -2    2    5    0.000427   -0.000000
   -3   -2   -2    3    5   -0.002507    0.000000
   -3   -2   -2    4    5   -0.000030   -0.000000
   -3   -2   -2    5    5    0.000303    0.000000
   -3   -2   -2    6    5    0.002041    0.000000
   -3   -2   -2    7    5    0.000014   -0.000000
   -3   -2   -2    8    5    0.001539   -0.000000
   -3   -2   -2    9    5    0.000509   -0.000000
   -3   -2   -2    1    6    0.002849   -0.000000
   -3   -2   -2    2    6   -0.004086    0.000000
   -3   -2   -2    3    6   -0.000919    0.000000
   -3   -2   -2    4    6   -0.000946   -0.000000
   -3   -2   -2    5    6    0.002041    0.000000
   -3   -2   -2    6    6    0.000640    0.000000
   -3   -2   -2    7    6    0.001690   -0.000000
   -3   -2   -2    8    6   -0.000596    0.000000
   -3   -2   -2    9    6    0.000728    0.000000
   -3   -2   -2    1    7    0.002421   -0.000000
   -3   -2   -2    2    7    0.000362    0.000000
   -3   -2   -2    3    7   -0.002011    0.000000
   -3   -2   -2    4    7    0.000320   -0.000000
   -3   -2   -2    5    7    0.000014   -0.000000
   -3   -2   -2    6    7    0.001690    0.000000
   -3   -2   -2    7    7    0.001101   -0.000000
   -3   -2   -2    8    7   -0.000108    0.000000
   -3   -2   -2    9    7    0.001434    0.000000
   -3   -2   -2    1    8    0.000014   -0.000000
   -3   -2   -2    2    8   -0.000066   -0.000000
   -3   -2   -2    3    8    0.002008    0.000000
   -3   -2   -2    4    8   -0.000095   -0.000000
   -3   -2   -2    5    8    0.001539   -0.000000
   -3   -2   -2    6    8   -0.000596    0.000000
   -3   -2   -2    7    8   -0.000108    0.000000
   -3   -2   -2    8    8   -0.001591    0.000000
   -3   -2   -2    9    8   -0.000750    0.000000
   -3   -2   -2    1    9    0.001633    0.000000
   -3   -2   -2    2    9   -0.000987   -0.000000
   -3   -2   -2    3    9   -0.000513    0.000000
   -3   -2   -2    4    9   -0.002916   -0.000000
   -3   -2   -2    5    9    0.000509   -0.000000
   -3   -2   -2    6    9    0.000728    0.000000
   -3   -2   -2    7    9    0.001434    0.000000
   -3   -2   -2    8    9   -0.000750   -0.000000
   -3   -2   -2    9    9   -0.000222   -0.000000
   -3   -2   -1    1    1   -0.000392    0.000000
   -3   -2   -1    2    1    0.001392   -0.000000
   -3   -2   -1    3    1    0.006400   -0.000000
   -3   -2   -1    4    1    0.007546    0.000000
   -3   -2   -1    5    1   -0.001229    0.000000
   -3   -2   -1    6    1    0.000875    0.000000
   -3   -2   -1    7    1   -0.000083    0.000000
   -3   -2   -1    8    1   -0.000341    0.000000
   -3   -2   -1    9    1    0.002068   -0.000000
   -3   -2   -1    1    2   -0.001392    0.000000
   -3   -2   -1    2    2    0.000719    0.000000
   -3   -2   -1    3    2    0.010725   -0.000000
   -3   -2   -1    4    2    0.001289   -0.000000
   -3   -2   -1    5    2   -0.001247    0.000000
   -3   -2   -1    6    2   -0.000174    0.000000
   -3   -2   -1    7    2   -0.002804    0.000000
   -3   -2   -1    8    2    0.000151   -0.000000
   -3   -2   -1    9    2   -0.000237   -0.000000
   -3   -2   -1    1    3   -0.006400    0.000000
   -3   -2   -1    2    3    0.010725   -0.000000
   -3   -2   -1    3    3    0.014331    0.000000
   -3   -2   -1    4    3    0.012189    0.000000
   -3   -2   -1    5    3    0.001057   -0.000000
   -3   -2   -1    6    3    0.002154    0.000000
   -3   -2   -1    7    3   -0.002354    0.000000
   -3   -2   -1    8    3   -0.002392    0.000000
   -3   -2   -1    9    3   -0.000783    0.000000
   -3   -2   -1    1    4   -0.007546   -0.000000
   -3   -2   -1    2    4    0.001289   -0.000000
   -3   -2   -1    3    4    0.012189   -0.000000
   -3   -2   -1    4    4    0.007813    0.000000
   -3   -2   -1    5    4    0.000216    0.000000
   -3   -2   -1    6    4    0.000655   -0.000000
   -3   -2   -1    7    4   -0.002073   -0.000000
   -3   -2   -1    8    4    0.000664    0.000000
   -3   -2   -1    9    4   -0.001536   -0.000000
   -3   -2   -1    1    5   -0.001229    0.000000
   -3   -2   -1    2    5    0.001247   -0.000000
   -3   -2   -1    3    5   -0.001057   -0.000000
   -3   -2   -1    4    5   -0.000216    0.000000
   -3   -2   -1    5    5    0.001446   -0.000000
   -3   -2   -1    6    5   -0.000766   -0.000000
   -3   -2   -1    7    5   -0.000045   -0.000000
   -3   -2   -1    8    5   -0.001148    0.000000
   -3   -2   -1    9    5    0.001808    0.000000
   -3   -2   -1    1    6    0.000875    0.000000
   -3   -2   -1    2    6    0.000174   -0.000000
   -3   -2   -1    3    6   -0.002154   -0.000000
   -3   -2   -1    4    6   -0.000655    0.000000
   -3   -2   -1    5    6   -0.000766   -0.000000
   -3   -2   -1    6    6    0.000378    0.000000
   -3   -2   -1    7    6    0.000428    0.000000
   -3   -2   -1    8    6   -0.000181    0.000000
   -3   -2   -1    9    6    0.001368    0.000000
   -3   -2   -1    1    7   -0.000083    0.000000
   -3   -2   -1    2    7    0.002804    0.000000
   -3   -2   -1    3    7    0.002354   -0.000000
   -3   -2   -1    4    7    0.002073    0.000000
   -3   -2   -1    5    7   -0.000045   -0.000000
   -3   -2   -1    6    7    0.000428    0.000000
   -3   -2   -1    7    7   -0.000270    0.000000
   -3   -2   -1    8    7   -0.000366    0.000000
   -3   -2   -1    9    7   -0.000055   -0.000000
   -3   -2   -1    1    8   -0.000341    0.000000
   -3   -2   -1    2    8   -0.000151    0.000000
   -3   -2   -1    3    8    0.002392   -0.000000
   -3   -2   -1    4    8   -0.000664   -0.000000
   -3   -2   -1    5    8   -0.001148   -0.000000
   -3   -2   -1    6    8   -0.000181    0.000000
   -3   -2   -1    7    8   -0.000366    0.000000
   -3   -2   -1    8    8   -0.000316    0.000000
   -3   -2   -1    9    8    0.001048    0.000000
   -3   -2   -1    1    9    0.002068   -0.000000
   -3   -2   -1    2    9    0.000237    0.000000
   -3   -2   -1    3    9    0.000783    0.000000
   -3   -2   -1    4    9    0.001536    0.000000
   -3   -2   -1    5    9    0.001808    0.000000
   -3   -2   -1    6    9    0.001368    0.000000
   -3   -2   -1    7    9   -0.000055   -0.000000
   -3   -2   -1    8    9    0.001048    0.000000
   -3   -2   -1    9    9   -0.000287    0.000000
   -3   -2    0    1    1   -0.004728   -0.000000
   -3   -2    0    2    1   -0.000000   -0.000000
   -3   -2    0    3    1    0.003357    0.000000
   -3   -2    0    4    1   -0.000043    0.000000
   -3   -2    0    5    1    0.000752   -0.000000
   -3   -2    0    6    1   -0.000000    0.000000
   -3   -2    0    7    1   -0.000000   -0.000000
   -3   -2    0    8    1    0.000142    0.000000
   -3   -2    0    9    1    0.001191    0.000000
   -3   -2    0    1    2    0.000000   -0.000000
   -3   -2    0    2    2   -0.001849   -0.000000
   -3   -2    0    3    2   -0.000000   -0.000000
   -3   -2    0    4    2   -0.000000   -0.000000
   -3   -2    0    5    2   -0.000000    0.000000
   -3   -2    0    6    2   -0.003801    0.000000
   -3   -2    0    7    2    0.001650    0.000000
   -3   -2    0    8    2   -0.000000   -0.000000
   -3   -2    0    9    2   -0.000000    0.000000
   -3   -2    0    1    3   -0.003357    0.000000
   -3   -2    0    2    3   -0.000000    0.000000
   -3   -2    0    3    3    0.010959    0.000000
   -3   -2    0    4    3   -0.000072    0.000000
   -3   -2    0    5    3   -0.001743   -0.000000
   -3   -2    0    6    3    0.000000    0.000000
   -3   -2    0    7    3    0.000000   -0.000000
   -3   -2    0    8    3    0.000070    0.000000
   -3   -2    0    9    3    0.000212    0.000000
   -3   -2    0    1    4    0.000043   -0.000000
   -3   -2    0    2    4   -0.000000   -0.000000
   -3   -2    0    3    4   -0.000072    0.000000
   -3   -2    0    4    4    0.007426    0.000000
   -3   -2    0    5    4   -0.001952   -0.000000
   -3   -2    0    6    4   -0.000000    0.000000
   -3   -2    0    7    4    0.000000   -0.000000
   -3   -2    0    8    4    0.001626   -0.000000
   -3   -2    0    9    4   -0.000706    0.000000
   -3   -2    0    1    5    0.000752   -0.000000
   -3   -2    0    2    5    0.000000    0.000000
   -3   -2    0    3    5    0.001743    0.000000
   -3   -2    0    4    5    0.001952    0.000000
   -3   -2    0    5    5   -0.000302   -0.000000
   -3   -2    0    6    5   -0.000000   -0.000000
   -3   -2    0    7    5   -0.000000    0.000000
   -3   -2    0    8    5   -0.000971   -0.000000
   -3   -2    0    9    5   -0.000929   -0.000000
   -3   -2    0    1    6   -0.000000    0.000000
   -3   -2    0    2    6    0.003801    0.000000
   -3   -2    0    3    6   -0.000000   -0.000000
   -3   -2    0    4    6    0.000000   -0.000000
   -3   -2    0    5    6   -0.000000   -0.000000
   -3   -2    0    6    6   -0.000022    0.000000
   -3   -2    0    7    6   -0.000845   -0.000000
   -3   -2    0    8    6   -0.000000   -0.000000
   -3   -2    0    9    6    0.000000    0.000000
   -3   -2    0    1    7   -0.000000    0.000000
   -3   -2    0    2    7   -0.001650    0.000000
   -3   -2    0    3    7   -0.000000   -0.000000
   -3   -2    0    4    7   -0.000000    0.000000
   -3   -2    0    5    7   -0.000000   -0.000000
   -3   -2    0    6    7   -0.000845    0.000000
   -3   -2    0    7    7    0.000289    0.000000
   -3   -2    0    8    7    0.000000   -0.000000
   -3   -2    0    9    7    0.000000   -0.000000
   -3   -2    0    1    8    0.000142    0.000000
   -3   -2    0    2    8    0.000000    0.000000
   -3   -2    0    3    8   -0.000070   -0.000000
   -3   -2    0    4    8   -0.001626   -0.000000
   -3   -2    0    5    8   -0.000971    0.000000
   -3   -2    0    6    8   -0.000000   -0.000000
   -3   -2    0    7    8    0.000000   -0.000000
   -3   -2    0    8    8    0.000881    0.000000
   -3   -2    0    9    8   -0.000272    0.000000
   -3   -2    0    1    9    0.001191    0.000000
   -3   -2    0    2    9    0.000000   -0.000000
   -3   -2    0    3    9   -0.000212   -0.000000
   -3   -2    0    4    9    0.000706   -0.000000
   -3   -2    0    5    9   -0.000929    0.000000
   -3   -2    0    6    9    0.000000   -0.000000
   -3   -2    0    7    9    0.000000   -0.000000
   -3   -2    0    8    9   -0.000272    0.000000
   -3   -2    0    9    9    0.002168   -0.000000
   -3   -1   -4    1    1    0.000056   -0.000000
   -3   -1   -4    2    1   -0.000474    0.000000
   -3   -1   -4    3    1    0.000292   -0.000000
   -3   -1   -4    4    1   -0.000192   -0.000000
   -3   -1   -4    5    1   -0.000246   -0.000000
   -3   -1   -4    6    1   -0.000480    0.000000
   -3   -1   -4    7    1    0.000348    0.000000
   -3   -1   -4    8    1   -0.000120    0.000000
   -3   -1   -4    9    1    0.000361    0.000000
   -3   -1   -4    1    2    0.000474    0.000000
   -3   -1   -4    2    2   -0.004637   -0.000000
   -3   -1   -4    3    2   -0.004533   -0.000000
   -3   -1   -4    4    2    0.003118   -0.000000
   -3   -1   -4    5    2    0.002740    0.000000
   -3   -1   -4    6    2   -0.001495    0.000000
   -3   -1   -4    7    2    0.001053    0.000000
   -3   -1   -4    8    2    0.000181    0.000000
   -3   -1   -4    9    2   -0.000534   -0.000000
   -3   -1   -4    1    3   -0.000292   -0.000000
   -3   -1   -4    2    3   -0.004533    0.000000
   -3   -1   -4    3    3   -0.005633    0.000000
   -3   -1   -4    4    3   -0.001438    0.000000
   -3   -1   -4    5    3    0.000753   -0.000000
   -3   -1   -4    6    3    0.001703   -0.000000
   -3   -1   -4    7    3   -0.000335    0.000000
   -3   -1   -4    8    3   -0.001371   -0.000000
   -3   -1   -4    9    3    0.001805    0.000000
   -3   -1   -4    1    4    0.000192   -0.000000
   -3   -1   -4    2    4    0.003118    0.000000
   -3   -1   -4    3    4   -0.001438   -0.000000
   -3   -1   -4    4    4   -0.006672    0.000000
   -3   -1   -4    5    4   -0.000552   -0.000000
   -3   -1   -4    6    4   -0.000331    0.000000
   -3   -1   -4    7    4    0.001487   -0.000000
   -3   -1   -4    8    4   -0.000461    0.000000
   -3   -1   -4    9    4   -0.001748    0.000000
   -3   -1   -4    1    5   -0.000246   -0.000000
   -3   -1   -4    2    5   -0.002740   -0.000000
   -3   -1   -4    3    5   -0.000753    0.000000
   -3   -1   -4    4    5    0.000552    0.000000
   -3   -1   -4    5    5   -0.000125    0.000000
   -3   -1   -4    6    5   -0.000162    0.000000
   -3   -1   -4    7    5    0.000112   -0.000000
   -3   -1   -4    8    5   -0.000154   -0.000000
   -3   -1   -4    9    5    0.000427    0.000000
   -3   -1   -4    1    6   -0.000480   -0.000000
   -3   -1   -4    2    6    0.001495    0.000000
   -3   -1   -4    3    6   -0.001703   -0.000000
   -3   -1   -4    4    6    0.000331    0.000000
   -3   -1   -4    5    6   -0.000162   -0.000000
   -3   -1   -4    6    6   -0.000081    0.000000
   -3   -1   -4    7    6   -0.000622    0.000000
   -3   -1   -4    8    6    0.000299    0.000000
   -3   -1   -4    9    6    0.000409    0.000000
   -3   -1   -4    1    7    0.000348    0.000000
   -3   -1   -4    2    7   -0.001053    0.000000
   -3   -1   -4    3    7    0.000335   -0.000000
   -3   -1   -4    4    7   -0.001487   -0.000000
   -3   -1   -4    5    7    0.000112   -0.000000
   -3   -1   -4    6    7   -0.000622   -0.000000
   -3   -1   -4    7    7   -0.000521   -0.000000
   -3   -1   -4    8    7    0.000631   -0.000000
   -3   -1   -4    9    7    0.000005   -0.000000
   -3   -1   -4    1    8   -0.000120    0.000000
   -3   -1   -4    2    8   -0.000181    0.000000
   -3   -1   -4    3    8    0.001371    0.000000
   -3   -1   -4    4    8    0.000461    0.000000
   -3   -1   -4    5    8   -0.000154   -0.000000
   -3   -1   -4    6    8    0.000299    0.000000
   -3   -1   -4    7    8    0.000631    0.000000
   -3   -1   -4    8    8   -0.000937   -0.000000
   -3   -1   -4    9    8   -0.000100   -0.000000
   -3   -1   -4    1    9    0.000361   -0.000000
   -3   -1   -4    2    9    0.000534   -0.000000
   -3   -1   -4    3    9   -0.001805    0.000000
   -3   -1   -4    4    9    0.001748    0.000000
   -3   -1   -4    5    9    0.000427    0.000000
   -3   -1   -4    6    9    0.000409    0.000000
   -3   -1   -4    7    9    0.000005    0.000000
   -3   -1   -4    8    9   -0.000100   -0.000000
   -3   -1   -4    9    9   -0.000700   -0.000000
   -3   -1   -3    1    1   -0.004827   -0.000000
   -3   -1   -3    2    1    0.002829   -0.000000
   -3   -1   -3    3    1    0.001274    0.000000
   -3   -1   -3    4    1    0.001473   -0.000000
   -3   -1   -3    5    1    0.000429   -0.000000
   -3   -1   -3    6    1    0.000038   -0.000000
   -3   -1   -3    7    1   -0.000735   -0.000000
   -3   -1   -3    8    1    0.000966    0.000000
   -3   -1   -3    9    1    0.000333    0.000000
   -3   -1   -3    1    2   -0.002829   -0.000000
   -3   -1   -3    2    2    0.007480    0.000000
   -3   -1   -3    3    2    0.004519   -0.000000
   -3   -1   -3    4    2    0.002775   -0.000000
   -3   -1   -3    5    2   -0.000708   -0.000000
   -3   -1   -3    6    2    0.002432   -0.000000
   -3   -1   -3    7    2    0.000460    0.000000
   -3   -1   -3    8    2   -0.001190    0.000000
   -3   -1   -3    9    2    0.000901    0.000000
   -3   -1   -3    1    3   -0.001274   -0.000000
   -3   -1   -3    2    3    0.004519    0.000000
   -3   -1   -3    3    3    0.001772    0.000000
   -3   -1   -3    4    3   -0.001673    0.000000
   -3   -1   -3    5    3    0.002326   -0.000000
   -3   -1   -3    6    3   -0.000547   -0.000000
   -3   -1   -3    7    3    0.001739   -0.000000
   -3   -1   -3    8    3   -0.000363    0.000000
   -3   -1   -3    9    3   -0.002360   -0.000000
   -3   -1   -3    1    4   -0.001473   -0.000000
   -3   -1   -3    2    4    0.002775    0.000000
   -3   -1   -3    3    4   -0.001673   -0.000000
   -3   -1   -3    4    4    0.007349   -0.000000
   -3   -1   -3    5    4    0.000168    0.000000
   -3   -1   -3    6    4   -0.000902   -0.000000
   -3   -1   -3    7    4   -0.001078    0.000000
   -3   -1   -3    8    4    0.000687    0.000000
   -3   -1   -3    9    4   -0.001245    0.000000
   -3   -1   -3    1    5    0.000429   -0.000000
   -3   -1   -3    2    5    0.000708    0.000000
   -3   -1   -3    3    5   -0.002326    0.000000
   -3   -1   -3    4    5   -0.000168    0.000000
   -3   -1   -3    5    5    0.000424    0.000000
   -3   -1   -3    6    5    0.001186    0.000000
   -3   -1   -3    7    5    0.000264    0.000000
   -3   -1   -3    8    5    0.000490   -0.000000
   -3   -1   -3    9    5   -0.000303   -0.000000
   -3   -1   -3    1    6    0.000038   -0.000000
   -3   -1   -3    2    6   -0.002432    0.000000
   -3   -1   -3    3    6    0.000547    0.000000
   -3   -1   -3    4    6    0.000902   -0.000000
   -3   -1   -3    5    6    0.001186    0.000000
   -3   -1   -3    6    6    0.001176    0.000000
   -3   -1   -3    7    6   -0.000593   -0.000000
   -3   -1   -3    8    6    0.000590   -0.000000
   -3   -1   -3    9    6    0.000361    0.000000
   -3   -1   -3    1    7   -0.000735   -0.000000
   -3   -1   -3    2    7   -0.000460   -0.000000
   -3   -1   -3    3    7   -0.001739   -0.000000
   -3   -1   -3    4    7    0.001078   -0.000000
   -3   -1   -3    5    7    0.000264    0.000000
   -3   -1   -3    6    7   -0.000593   -0.000000
   -3   -1   -3    7    7    0.001269    0.000000
   -3   -1   -3    8    7   -0.000420    0.000000
   -3   -1   -3    9    7    0.000285    0.000000
   -3   -1   -3    1    8    0.000966    0.000000
   -3   -1   -3    2    8    0.001190    0.000000
   -3   -1   -3    3    8    0.000363    0.000000
   -3   -1   -3    4    8   -0.000687    0.000000
   -3   -1   -3    5    8    0.000490   -0.000000
   -3   -1   -3    6    8    0.000590   -0.000000
   -3   -1   -3    7    8   -0.000420    0.000000
   -3   -1   -3    8    8   -0.000174   -0.000000
   -3   -1   -3    9    8   -0.000948   -0.000000
   -3   -1   -3    1    9    0.000333   -0.000000
   -3   -1   -3    2    9   -0.000901    0.000000
   -3   -1   -3    3    9    0.002360    0.000000
   -3   -1   -3    4    9    0.001245    0.000000
   -3   -1   -3    5    9   -0.000303   -0.000000
   -3   -1   -3    6    9    0.000361   -0.000000
   -3   -1   -3    7    9    0.000285    0.000000
   -3   -1   -3    8    9   -0.000948   -0.000000
   -3   -1   -3    9    9    0.000352    0.000000
   -3   -1   -2    1    1   -0.000383   -0.000000
   -3   -1   -2    2    1    0.006996   -0.000000
   -3   -1   -2    3    1    0.006431   -0.000000
   -3   -1   -2    4    1   -0.002685   -0.000000
   -3   -1   -2    5    1    0.000327   -0.000000
   -3   -1   -2    6    1    0.002237   -0.000000
   -3   -1   -2    7    1   -0.001146    0.000000
   -3   -1   -2    8    1    0.000532    0.000000
   -3   -1   -2    9    1   -0.000343    0.000000
   -3   -1   -2    1    2   -0.006996   -0.000000
   -3   -1   -2    2    2    0.006993    0.000000
   -3   -1   -2    3    2    0.015927   -0.000000
   -3   -1   -2    4    2   -0.002299   -0.000000
   -3   -1   -2    5    2   -0.002731   -0.000000
   -3   -1   -2    6    2   -0.000923   -0.000000
   -3   -1   -2    7    2   -0.001602   -0.000000
   -3   -1   -2    8    2   -0.000692   -0.000000
   -3   -1   -2    9    2    0.001147   -0.000000
   -3   -1   -2    1    3   -0.006431    0.000000
   -3   -1   -2    2    3    0.015927   -0.000000
   -3   -1   -2    3    3    0.014473    0.000000
   -3   -1   -2    4    3    0.003192   -0.000000
   -3   -1   -2    5    3   -0.000420   -0.000000
   -3   -1   -2    6    3    0.000336    0.000000
   -3   -1   -2    7    3   -0.001378    0.000000
   -3   -1   -2    8    3   -0.003226    0.000000
   -3   -1   -2    9    3    0.002271    0.000000
   -3   -1   -2    1    4    0.002685    0.000000
   -3   -1   -2    2    4   -0.002299   -0.000000
   -3   -1   -2    3    4    0.003192    0.000000
   -3   -1   -2    4    4    0.001420    0.000000
   -3   -1   -2    5    4   -0.000750    0.000000
   -3   -1   -2    6    4    0.000396    0.000000
   -3   -1   -2    7    4   -0.001738   -0.000000
   -3   -1   -2    8    4    0.000027   -0.000000
   -3   -1   -2    9    4   -0.000827    0.000000
   -3   -1   -2    1    5    0.000327   -0.000000
   -3   -1   -2    2    5    0.002731    0.000000
   -3   -1   -2    3    5    0.000420    0.000000
   -3   -1   -2    4    5    0.000750   -0.000000
   -3   -1   -2    5    5   -0.000075    0.000000
   -3   -1   -2    6    5   -0.000545   -0.000000
   -3   -1   -2    7    5    0.000435   -0.000000
   -3   -1   -2    8    5   -0.000291   -0.000000
   -3   -1   -2    9    5    0.000927    0.000000
   -3   -1   -2    1    6    0.002237    0.000000
   -3   -1   -2    2    6    0.000923   -0.000000
   -3   -1   -2    3    6   -0.000336   -0.000000
   -3   -1   -2    4    6   -0.000396    0.000000
   -3   -1   -2    5    6   -0.000545   -0.000000
   -3   -1   -2    6    6    0.001044   -0.000000
   -3   -1   -2    7    6    0.001318    0.000000
   -3   -1   -2    8    6   -0.000183    0.000000
   -3   -1   -2    9    6    0.000970    0.000000
   -3   -1   -2    1    7   -0.001146    0.000000
   -3   -1   -2    2    7    0.001602    0.000000
   -3   -1   -2    3    7    0.001378   -0.000000
   -3   -1   -2    4    7    0.001738   -0.000000
   -3   -1   -2    5    7    0.000435   -0.000000
   -3   -1   -2    6    7    0.001318    0.000000
   -3   -1   -2    7    7   -0.000270    0.000000
   -3   -1   -2    8    7   -0.001248    0.000000
   -3   -1   -2    9    7   -0.001280    0.000000
   -3   -1   -2    1    8    0.000532    0.000000
   -3   -1   -2    2    8    0.000692    0.000000
   -3   -1   -2    3    8    0.003226   -0.000000
   -3   -1   -2    4    8   -0.000027    0.000000
   -3   -1   -2    5    8   -0.000291   -0.000000
   -3   -1   -2    6    8   -0.000183    0.000000
   -3   -1   -2    7    8   -0.001248    0.000000
   -3   -1   -2    8    8    0.001189    0.000000
   -3   -1   -2    9    8    0.000774    0.000000
   -3   -1   -2    1    9   -0.000343   -0.000000
   -3   -1   -2    2    9   -0.001147    0.000000
   -3   -1   -2    3    9   -0.002271   -0.000000
   -3   -1   -2    4    9    0.000827   -0.000000
   -3   -1   -2    5    9    0.000927    0.000000
   -3   -1   -2    6    9    0.000970    0.000000
   -3   -1   -2    7    9   -0.001280    0.000000
   -3   -1   -2    8    9    0.000774   -0.000000
   -3   -1   -2    9    9   -0.000969    0.000000
   -3   -1   -1    1    1    0.010460    0.000000
   -3   -1   -1    2    1    0.001293    0.000000
   -3   -1   -1    3    1   -0.003748   -0.000000
   -3   -1   -1    4    1    0.000691    0.000000
   -3   -1   -1    5    1   -0.002168   -0.000000
   -3   -1   -1    6    1    0.001271    0.000000
   -3   -1   -1    7    1   -0.000080    0.000000
   -3   -1   -1    8    1    0.003724   -0.000000
   -3   -1   -1    9    1    0.000726    0.000000
   -3   -1   -1    1    2   -0.001293   -0.000000
   -3   -1   -1    2    2   -0.001864    0.000000
   -3   -1   -1    3    2   -0.002427    0.000000
   -3   -1   -1    4    2    0.003523    0.000000
   -3   -1   -1    5    2   -0.000622    0.000000
   -3   -1   -1    6    2   -0.001861   -0.000000
   -3   -1   -1    7    2   -0.001171   -0.000000
   -3   -1   -1    8    2    0.002482   -0.000000
   -3   -1   -1    9    2   -0.001474    0.000000
   -3   -1   -1    1    3    0.003748    0.000000
   -3   -1   -1    2    3   -0.002427    0.000000
   -3   -1   -1    3    3   -0.008091   -0.000000
   -3   -1   -1    4    3   -0.001487   -0.000000
   -3   -1   -1    5    3   -0.002152    0.000000
   -3   -1   -1    6    3    0.002870    0.000000
   -3   -1   -1    7    3   -0.001552    0.000000
   -3   -1   -1    8    3    0.001909   -0.000000
   -3   -1   -1    9    3    0.001656    0.000000
   -3   -1   -1    1    4   -0.000691    0.000000
   -3   -1   -1    2    4    0.003523   -0.000000
   -3   -1   -1    3    4   -0.001487   -0.000000
   -3   -1   -1    4    4   -0.005948    0.000000
   -3   -1   -1    5    4   -0.002423   -0.000000
   -3   -1   -1    6    4   -0.001497    0.000000
   -3   -1   -1    7    4    0.000634   -0.000000
   -3   -1   -1    8    4    0.000341    0.000000
   -3   -1   -1    9    4   -0.000254   -0.000000
   -3   -1   -1    1    5   -0.002168    0.000000
   -3   -1   -1    2    5    0.000622   -0.000000
   -3   -1   -1    3    5    0.002152   -0.000000
   -3   -1   -1    4    5    0.002423    0.000000
   -3   -1   -1    5    5    0.000012   -0.000000
   -3   -1   -1    6    5   -0.001042   -0.000000
   -3   -1   -1    7    5   -0.000126    0.000000
   -3   -1   -1    8    5   -0.001827    0.000000
   -3   -1   -1    9    5   -0.000622    0.000000
   -3   -1   -1    1    6    0.001271    0.000000
   -3   -1   -1    2    6    0.001861   -0.000000
   -3   -1   -1    3    6   -0.002870   -0.000000
   -3   -1   -1    4    6    0.001497   -0.000000
   -3   -1   -1    5    6   -0.001042   -0.000000
   -3   -1   -1    6    6   -0.001633    0.000000
   -3   -1   -1    7    6   -0.000691    0.000000
   -3   -1   -1    8    6    0.001032   -0.000000
   -3   -1   -1    9    6   -0.001838    0.000000
   -3   -1   -1    1    7   -0.000080    0.000000
   -3   -1   -1    2    7    0.001171    0.000000
   -3   -1   -1    3    7    0.001552   -0.000000
   -3   -1   -1    4    7   -0.000634   -0.000000
   -3   -1   -1    5    7   -0.000126    0.000000
   -3   -1   -1    6    7   -0.000691    0.000000
   -3   -1   -1    7    7   -0.001090   -0.000000
   -3   -1   -1    8    7    0.000062   -0.000000
   -3   -1   -1    9    7   -0.000388    0.000000
   -3   -1   -1    1    8    0.003724    0.000000
   -3   -1   -1    2    8   -0.002482    0.000000
   -3   -1   -1    3    8   -0.001909   -0.000000
   -3   -1   -1    4    8   -0.000341   -0.000000
   -3   -1   -1    5    8   -0.001827    0.000000
   -3   -1   -1    6    8    0.001032   -0.000000
   -3   -1   -1    7    8    0.000062   -0.000000
   -3   -1   -1    8    8    0.002309   -0.000000
   -3   -1   -1    9    8    0.000580    0.000000
   -3   -1   -1    1    9    0.000726    0.000000
   -3   -1   -1    2    9    0.001474   -0.000000
   -3   -1   -1    3    9   -0.001656   -0.000000
   -3   -1   -1    4    9    0.000254    0.000000
   -3   -1   -1    5    9   -0.000622    0.000000
   -3   -1   -1    6    9   -0.001838    0.000000
   -3   -1   -1    7    9   -0.000388   -0.000000
   -3   -1   -1    8    9    0.000580    0.000000
   -3   -1   -1    9    9    0.000439    0.000000
   -3   -1    0    1    1   -0.001842    0.000000
   -3   -1    0    2    1    0.000000    0.000000
   -3   -1    0    3    1   -0.002247   -0.000000
   -3   -1    0    4    1    0.001090    0.000000
   -3   -1    0    5    1   -0.000228    0.000000
   -3   -1    0    6    1    0.000000   -0.000000
   -3   -1    0    7    1    0.000000   -0.000000
   -3   -1    0    8    1   -0.001825   -0.000000
   -3   -1    0    9    1   -0.000061   -0.000000
   -3   -1    0    1    2   -0.000000   -0.000000
   -3   -1    0    2    2    0.001599    0.000000
   -3   -1    0    3    2    0.000000    0.000000
   -3   -1    0    4    2   -0.000000   -0.000000
   -3   -1    0    5    2    0.000000   -0.000000
   -3   -1    0    6    2    0.003051   -0.000000
   -3   -1    0    7    2   -0.001054    0.000000
   -3   -1    0    8    2    0.000000   -0.000000
   -3   -1    0    9    2    0.000000   -0.000000
   -3   -1    0    1    3    0.002247    0.000000
   -3   -1    0    2    3    0.000000    0.000000
   -3   -1    0    3    3    0.001780   -0.000000
   -3   -1    0    4    3   -0.004849   -0.000000
   -3   -1    0    5    3    0.001197    0.000000
   -3   -1    0    6    3    0.000000   -0.000000
   -3   -1    0    7    3    0.000000    0.000000
   -3   -1    0    8    3   -0.001714   -0.000000
   -3   -1    0    9    3    0.001563   -0.000000
   -3   -1    0    1    4   -0.001090   -0.000000
   -3   -1    0    2    4   -0.000000    0.000000
   -3   -1    0    3    4   -0.004849    0.000000
   -3   -1    0    4    4    0.002646    0.000000
   -3   -1    0    5    4    0.002738    0.000000
   -3   -1    0    6    4    0.000000   -0.000000
   -3   -1    0    7    4    0.000000    0.000000
   -3   -1    0    8    4   -0.002728   -0.000000
   -3   -1    0    9    4   -0.000940   -0.000000
[...]
    4    1    2    7    1   -0.000000   -0.000000
    4    1    2    8    1   -0.000470   -0.000000
    4    1    2    9    1    0.001254    0.000000
    4    1    2    1    2   -0.001071    0.000000
    4    1    2    2    2    0.004937    0.000000
    4    1    2    3    2    0.000000    0.000000
    4    1    2    4    2    0.000000   -0.000000
    4    1    2    5    2   -0.001262   -0.000000
    4    1    2    6    2    0.000000   -0.000000
    4    1    2    7    2    0.000000   -0.000000
    4    1    2    8    2    0.001188    0.000000
    4    1    2    9    2   -0.000059   -0.000000
    4    1    2    1    3    0.000000   -0.000000
    4    1    2    2    3    0.000000   -0.000000
    4    1    2    3    3   -0.006482   -0.000000
    4    1    2    4    3   -0.001850    0.000000
    4    1    2    5    3    0.000000   -0.000000
    4    1    2    6    3   -0.002707    0.000000
    4    1    2    7    3   -0.000064   -0.000000
    4    1    2    8    3   -0.000000    0.000000
    4    1    2    9    3    0.000000    0.000000
    4    1    2    1    4   -0.000000   -0.000000
    4    1    2    2    4    0.000000    0.000000
    4    1    2    3    4   -0.001850   -0.000000
    4    1    2    4    4   -0.002771    0.000000
    4    1    2    5    4   -0.000000   -0.000000
    4    1    2    6    4    0.000806    0.000000
    4    1    2    7    4   -0.000506    0.000000
    4    1    2    8    4   -0.000000    0.000000
    4    1    2    9    4    0.000000   -0.000000
    4    1    2    1    5    0.000810    0.000000
    4    1    2    2    5    0.001262    0.000000
    4    1    2    3    5   -0.000000    0.000000
    4    1    2    4    5    0.000000   -0.000000
    4    1    2    5    5   -0.000167   -0.000000
    4    1    2    6    5    0.000000    0.000000
    4    1    2    7    5    0.000000    0.000000
    4    1    2    8    5   -0.000160    0.000000
    4    1    2    9    5    0.000401   -0.000000
    4    1    2    1    6   -0.000000    0.000000
    4    1    2    2    6   -0.000000    0.000000
    4    1    2    3    6    0.002707   -0.000000
    4    1    2    4    6   -0.000806    0.000000
    4    1    2    5    6    0.000000   -0.000000
    4    1    2    6    6    0.001004    0.000000
    4    1    2    7    6    0.000484   -0.000000
    4    1    2    8    6   -0.000000    0.000000
    4    1    2    9    6    0.000000   -0.000000
    4    1    2    1    7   -0.000000   -0.000000
    4    1    2    2    7   -0.000000   -0.000000
    4    1    2    3    7    0.000064    0.000000
    4    1    2    4    7    0.000506    0.000000
    4    1    2    5    7    0.000000   -0.000000
    4    1    2    6    7    0.000484    0.000000
    4    1    2    7    7    0.000992    0.000000
    4    1    2    8    7   -0.000000   -0.000000
    4    1    2    9    7    0.000000    0.000000
    4    1    2    1    8   -0.000470   -0.000000
    4    1    2    2    8   -0.001188   -0.000000
    4    1    2    3    8    0.000000    0.000000
    4    1    2    4    8    0.000000    0.000000
    4    1    2    5    8   -0.000160    0.000000
    4    1    2    6    8   -0.000000    0.000000
    4    1    2    7    8   -0.000000   -0.000000
    4    1    2    8    8   -0.001162   -0.000000
    4    1    2    9    8   -0.000067   -0.000000
    4    1    2    1    9    0.001254    0.000000
    4    1    2    2    9    0.000059    0.000000
    4    1    2    3    9   -0.000000    0.000000
    4    1    2    4    9   -0.000000    0.000000
    4    1    2    5    9    0.000401    0.000000
    4    1    2    6    9    0.000000   -0.000000
    4    1    2    7    9    0.000000    0.000000
    4    1    2    8    9   -0.000067   -0.000000
    4    1    2    9    9   -0.000895   -0.000000
    4    1    3    1    1    0.000189   -0.000000
    4    1    3    2    1    0.000028   -0.000000
    4    1    3    3    1    0.000397    0.000000
    4    1    3    4    1    0.000488    0.000000
    4    1    3    5    1   -0.000132   -0.000000
    4    1    3    6    1   -0.000579    0.000000
    4    1    3    7    1    0.000419    0.000000
    4    1    3    8    1   -0.000087    0.000000
    4    1    3    9    1    0.000236    0.000000
    4    1    3    1    2   -0.000028    0.000000
    4    1    3    2    2   -0.008924   -0.000000
    4    1    3    3    2   -0.000925    0.000000
    4    1    3    4    2    0.000650    0.000000
    4    1    3    5    2    0.000013    0.000000
    4    1    3    6    2   -0.001386    0.000000
    4    1    3    7    2   -0.001950   -0.000000
    4    1    3    8    2   -0.000584   -0.000000
    4    1    3    9    2   -0.000205   -0.000000
    4    1    3    1    3   -0.000397    0.000000
    4    1    3    2    3   -0.000925   -0.000000
    4    1    3    3    3   -0.005754    0.000000
    4    1    3    4    3    0.004571   -0.000000
    4    1    3    5    3    0.001043   -0.000000
    4    1    3    6    3   -0.000714   -0.000000
    4    1    3    7    3   -0.000133   -0.000000
    4    1    3    8    3   -0.001208    0.000000
    4    1    3    9    3   -0.002355    0.000000
    4    1    3    1    4   -0.000488    0.000000
    4    1    3    2    4    0.000650   -0.000000
    4    1    3    3    4    0.004571    0.000000
    4    1    3    4    4   -0.002390    0.000000
    4    1    3    5    4    0.001480   -0.000000
    4    1    3    6    4   -0.000386   -0.000000
    4    1    3    7    4    0.000704   -0.000000
    4    1    3    8    4    0.002116   -0.000000
    4    1    3    9    4   -0.002009    0.000000
    4    1    3    1    5   -0.000132   -0.000000
    4    1    3    2    5   -0.000013    0.000000
    4    1    3    3    5   -0.001043   -0.000000
    4    1    3    4    5   -0.001480   -0.000000
    4    1    3    5    5   -0.000079    0.000000
    4    1    3    6    5    0.000141    0.000000
    4    1    3    7    5   -0.000102   -0.000000
    4    1    3    8    5    0.000092    0.000000
    4    1    3    9    5   -0.000258    0.000000
    4    1    3    1    6   -0.000579    0.000000
    4    1    3    2    6    0.001386   -0.000000
    4    1    3    3    6    0.000714    0.000000
    4    1    3    4    6    0.000386   -0.000000
    4    1    3    5    6    0.000141   -0.000000
    4    1    3    6    6   -0.000894   -0.000000
    4    1    3    7    6    0.000075   -0.000000
    4    1    3    8    6    0.000584   -0.000000
    4    1    3    9    6   -0.000058    0.000000
    4    1    3    1    7    0.000419    0.000000
    4    1    3    2    7    0.001950   -0.000000
    4    1    3    3    7    0.000133   -0.000000
    4    1    3    4    7   -0.000704    0.000000
    4    1    3    5    7   -0.000102   -0.000000
    4    1    3    6    7    0.000075   -0.000000
    4    1    3    7    7   -0.000840   -0.000000
    4    1    3    8    7    0.000650    0.000000
    4    1    3    9    7    0.000413   -0.000000
    4    1    3    1    8   -0.000087    0.000000
    4    1    3    2    8    0.000584   -0.000000
    4    1    3    3    8    0.001208    0.000000
    4    1    3    4    8   -0.002116   -0.000000
    4    1    3    5    8    0.000092    0.000000
    4    1    3    6    8    0.000584   -0.000000
    4    1    3    7    8    0.000650   -0.000000
    4    1    3    8    8   -0.000663    0.000000
    4    1    3    9    8   -0.000315   -0.000000
    4    1    3    1    9    0.000236   -0.000000
    4    1    3    2    9    0.000205    0.000000
    4    1    3    3    9    0.002355    0.000000
    4    1    3    4    9    0.002009    0.000000
    4    1    3    5    9   -0.000258    0.000000
    4    1    3    6    9   -0.000058    0.000000
    4    1    3    7    9    0.000413   -0.000000
    4    1    3    8    9   -0.000315    0.000000
    4    1    3    9    9    0.000105    0.000000
    4    2    1    1    1   -0.000766    0.000000
    4    2    1    2    1    0.000478    0.000000
    4    2    1    3    1   -0.000026    0.000000
    4    2    1    4    1    0.000842    0.000000
    4    2    1    5    1    0.000202    0.000000
    4    2    1    6    1    0.001056   -0.000000
    4    2    1    7    1    0.000387    0.000000
    4    2    1    8    1   -0.000816    0.000000
    4    2    1    9    1   -0.000624   -0.000000
    4    2    1    1    2   -0.000478    0.000000
    4    2    1    2    2   -0.000804    0.000000
    4    2    1    3    2   -0.001614   -0.000000
    4    2    1    4    2    0.003365   -0.000000
    4    2    1    5    2   -0.000678    0.000000
    4    2    1    6    2    0.000280    0.000000
    4    2    1    7    2   -0.000398    0.000000
    4    2    1    8    2    0.000582    0.000000
    4    2    1    9    2    0.000642   -0.000000
    4    2    1    1    3    0.000026   -0.000000
    4    2    1    2    3   -0.001614   -0.000000
    4    2    1    3    3   -0.006512   -0.000000
    4    2    1    4    3    0.000812   -0.000000
    4    2    1    5    3   -0.000074   -0.000000
    4    2    1    6    3   -0.001330   -0.000000
    4    2    1    7    3   -0.000035   -0.000000
    4    2    1    8    3   -0.000039   -0.000000
    4    2    1    9    3   -0.002327    0.000000
    4    2    1    1    4   -0.000842    0.000000
    4    2    1    2    4    0.003365    0.000000
    4    2    1    3    4    0.000812    0.000000
    4    2    1    4    4    0.002998   -0.000000
    4    2    1    5    4   -0.000325   -0.000000
    4    2    1    6    4   -0.000292    0.000000
    4    2    1    7    4   -0.000192   -0.000000
    4    2    1    8    4    0.001467    0.000000
    4    2    1    9    4   -0.000310   -0.000000
    4    2    1    1    5    0.000202    0.000000
    4    2    1    2    5    0.000678    0.000000
    4    2    1    3    5    0.000074    0.000000
    4    2    1    4    5    0.000325   -0.000000
    4    2    1    5    5    0.000043   -0.000000
    4    2    1    6    5    0.000177    0.000000
    4    2    1    7    5    0.000803    0.000000
    4    2    1    8    5    0.000723    0.000000
    4    2    1    9    5    0.000306   -0.000000
    4    2    1    1    6    0.001056   -0.000000
    4    2    1    2    6   -0.000280    0.000000
    4    2    1    3    6    0.001330   -0.000000
    4    2    1    4    6    0.000292    0.000000
    4    2    1    5    6    0.000177    0.000000
    4    2    1    6    6   -0.000432    0.000000
    4    2    1    7    6    0.000346   -0.000000
    4    2    1    8    6   -0.000153   -0.000000
    4    2    1    9    6    0.000823   -0.000000
    4    2    1    1    7    0.000387   -0.000000
    4    2    1    2    7    0.000398    0.000000
    4    2    1    3    7    0.000035    0.000000
    4    2    1    4    7    0.000192    0.000000
    4    2    1    5    7    0.000803    0.000000
    4    2    1    6    7    0.000346    0.000000
    4    2    1    7    7   -0.000171    0.000000
    4    2    1    8    7   -0.000038   -0.000000
    4    2    1    9    7    0.000078    0.000000
    4    2    1    1    8   -0.000816   -0.000000
    4    2    1    2    8   -0.000582   -0.000000
    4    2    1    3    8    0.000039   -0.000000
    4    2    1    4    8   -0.001467    0.000000
    4    2    1    5    8    0.000723    0.000000
    4    2    1    6    8   -0.000153    0.000000
    4    2    1    7    8   -0.000038    0.000000
    4    2    1    8    8   -0.000216   -0.000000
    4    2    1    9    8    0.000327   -0.000000
    4    2    1    1    9   -0.000624    0.000000
    4    2    1    2    9   -0.000642    0.000000
    4    2    1    3    9    0.002327   -0.000000
    4    2    1    4    9    0.000310   -0.000000
    4    2    1    5    9    0.000306   -0.000000
    4    2    1    6    9    0.000823    0.000000
    4    2    1    7    9    0.000078    0.000000
    4    2    1    8    9    0.000327    0.000000
    4    2    1    9    9    0.000519   -0.000000
    4    2    2    1    1    0.000752    0.000000
    4    2    2    2    1    0.000701    0.000000
    4    2    2    3    1    0.001113    0.000000
    4    2    2    4    1    0.000333    0.000000
    4    2    2    5    1   -0.000145    0.000000
    4    2    2    6    1   -0.000122   -0.000000
    4    2    2    7    1   -0.000957    0.000000
    4    2    2    8    1   -0.000839    0.000000
    4    2    2    9    1   -0.000090    0.000000
    4    2    2    1    2   -0.000701   -0.000000
    4    2    2    2    2    0.000425   -0.000000
    4    2    2    3    2   -0.004695   -0.000000
    4    2    2    4    2   -0.004768    0.000000
    4    2    2    5    2   -0.000877    0.000000
    4    2    2    6    2    0.000602   -0.000000
    4    2    2    7    2   -0.002241    0.000000
    4    2    2    8    2    0.000478    0.000000
    4    2    2    9    2   -0.000742   -0.000000
    4    2    2    1    3   -0.001113   -0.000000
    4    2    2    2    3   -0.004695   -0.000000
    4    2    2    3    3   -0.006346   -0.000000
    4    2    2    4    3   -0.002846    0.000000
    4    2    2    5    3    0.000296    0.000000
    4    2    2    6    3    0.001380    0.000000
    4    2    2    7    3   -0.001386   -0.000000
    4    2    2    8    3   -0.002115   -0.000000
    4    2    2    9    3    0.000795   -0.000000
    4    2    2    1    4   -0.000333   -0.000000
    4    2    2    2    4   -0.004768    0.000000
    4    2    2    3    4   -0.002846   -0.000000
    4    2    2    4    4    0.005726    0.000000
    4    2    2    5    4   -0.001652   -0.000000
    4    2    2    6    4   -0.000732   -0.000000
    4    2    2    7    4   -0.000530   -0.000000
    4    2    2    8    4   -0.000414   -0.000000
    4    2    2    9    4    0.001479    0.000000
    4    2    2    1    5   -0.000145   -0.000000
    4    2    2    2    5    0.000877   -0.000000
    4    2    2    3    5   -0.000296   -0.000000
    4    2    2    4    5    0.001652   -0.000000
    4    2    2    5    5    0.000341   -0.000000
    4    2    2    6    5   -0.000021   -0.000000
    4    2    2    7    5   -0.000588   -0.000000
    4    2    2    8    5    0.000267    0.000000
    4    2    2    9    5   -0.000180    0.000000
    4    2    2    1    6   -0.000122    0.000000
    4    2    2    2    6   -0.000602    0.000000
    4    2    2    3    6   -0.001380    0.000000
    4    2    2    4    6    0.000732    0.000000
    4    2    2    5    6   -0.000021   -0.000000
    4    2    2    6    6    0.000771    0.000000
    4    2    2    7    6    0.000522    0.000000
    4    2    2    8    6    0.000873    0.000000
    4    2    2    9    6   -0.000126    0.000000
    4    2    2    1    7   -0.000957    0.000000
    4    2    2    2    7    0.002241    0.000000
    4    2    2    3    7    0.001386    0.000000
    4    2    2    4    7    0.000530   -0.000000
    4    2    2    5    7   -0.000588   -0.000000
    4    2    2    6    7    0.000522    0.000000
    4    2    2    7    7    0.000085   -0.000000
    4    2    2    8    7    0.000083   -0.000000
    4    2    2    9    7    0.000419   -0.000000
    4    2    2    1    8   -0.000839    0.000000
    4    2    2    2    8   -0.000478   -0.000000
    4    2    2    3    8    0.002115    0.000000
    4    2    2    4    8    0.000414   -0.000000
    4    2    2    5    8    0.000267    0.000000
    4    2    2    6    8    0.000873    0.000000
    4    2    2    7    8    0.000083    0.000000
    4    2    2    8    8    0.000513    0.000000
    4    2    2    9    8    0.000413    0.000000
    4    2    2    1    9   -0.000090    0.000000
    4    2    2    2    9    0.000742    0.000000
    4    2    2    3    9   -0.000795    0.000000
    4    2    2    4    9   -0.001479    0.000000
    4    2    2    5    9   -0.000180    0.000000
    4    2    2    6    9   -0.000126    0.000000
    4    2    2    7    9    0.000419   -0.000000
    4    2    2    8    9    0.000413    0.000000
    4    2    2    9    9    0.000910    0.000000
    4    3    1    1    1    0.000187    0.000000
    4    3    1    2    1    0.000372    0.000000
    4    3    1    3    1    0.000314    0.000000
    4    3    1    4    1   -0.000355   -0.000000
    4    3    1    5    1    0.000392   -0.000000
    4    3    1    6    1   -0.000081    0.000000
    4    3    1    7    1    0.000082    0.000000
    4    3    1    8    1    0.000207    0.000000
    4    3    1    9    1   -0.000584    0.000000
    4    3    1    1    2   -0.000372    0.000000
    4    3    1    2    2   -0.003499   -0.000000
    4    3    1    3    2    0.003502    0.000000
    4    3    1    4    2   -0.002457    0.000000
    4    3    1    5    2   -0.001452    0.000000
    4    3    1    6    2   -0.002104    0.000000
    4    3    1    7    2    0.001482   -0.000000
    4    3    1    8    2   -0.000005   -0.000000
    4    3    1    9    2    0.000020    0.000000
    4    3    1    1    3   -0.000314   -0.000000
    4    3    1    2    3    0.003502    0.000000
    4    3    1    3    3   -0.005613    0.000000
    4    3    1    4    3   -0.003129    0.000000
    4    3    1    5    3    0.000546   -0.000000
    4    3    1    6    3   -0.002398    0.000000
    4    3    1    7    3    0.000243    0.000000
    4    3    1    8    3   -0.001489    0.000000
    4    3    1    9    3    0.000571   -0.000000
    4    3    1    1    4    0.000355    0.000000
    4    3    1    2    4   -0.002457    0.000000
    4    3    1    3    4   -0.003129    0.000000
    4    3    1    4    4   -0.007938    0.000000
    4    3    1    5    4   -0.000401    0.000000
    4    3    1    6    4    0.000163   -0.000000
    4    3    1    7    4   -0.002268    0.000000
    4    3    1    8    4   -0.001410    0.000000
    4    3    1    9    4   -0.001226    0.000000
    4    3    1    1    5    0.000392    0.000000
    4    3    1    2    5    0.001452   -0.000000
    4    3    1    3    5   -0.000546   -0.000000
    4    3    1    4    5    0.000401    0.000000
    4    3    1    5    5   -0.001354    0.000000
    4    3    1    6    5    0.000307   -0.000000
    4    3    1    7    5   -0.000217   -0.000000
    4    3    1    8    5    0.000203    0.000000
    4    3    1    9    5   -0.000570    0.000000
    4    3    1    1    6   -0.000081   -0.000000
    4    3    1    2    6    0.002104    0.000000
    4    3    1    3    6    0.002398    0.000000
    4    3    1    4    6   -0.000163   -0.000000
    4    3    1    5    6    0.000307    0.000000
    4    3    1    6    6   -0.000198    0.000000
    4    3    1    7    6    0.000079    0.000000
    4    3    1    8    6    0.000283   -0.000000
    4    3    1    9    6   -0.000471    0.000000
    4    3    1    1    7    0.000082   -0.000000
    4    3    1    2    7   -0.001482   -0.000000
    4    3    1    3    7   -0.000243   -0.000000
    4    3    1    4    7    0.002268    0.000000
    4    3    1    5    7   -0.000217    0.000000
    4    3    1    6    7    0.000079    0.000000
    4    3    1    7    7   -0.000145   -0.000000
    4    3    1    8    7    0.000018   -0.000000
    4    3    1    9    7    0.000403   -0.000000
    4    3    1    1    8    0.000207    0.000000
    4    3    1    2    8    0.000005    0.000000
    4    3    1    3    8    0.001489   -0.000000
    4    3    1    4    8    0.001410   -0.000000
    4    3    1    5    8    0.000203    0.000000
    4    3    1    6    8    0.000283    0.000000
    4    3    1    7    8    0.000018   -0.000000
    4    3    1    8    8   -0.000113    0.000000
    4    3    1    9    8    0.000181   -0.000000
    4    3    1    1    9   -0.000584    0.000000
    4    3    1    2    9   -0.000020    0.000000
    4    3    1    3    9   -0.000571    0.000000
    4    3    1    4    9    0.001226    0.000000
    4    3    1    5    9   -0.000570   -0.000000
    4    3    1    6    9   -0.000471    0.000000
    4    3    1    7    9    0.000403   -0.000000
    4    3    1    8    9    0.000181   -0.000000
    4    3    1    9    9   -0.000577    0.000000
