 written on 22Apr2026 at 01:21:07 
           9
         229
    1    1    2    1    2    1    1    2    1    1    2    1    1    1    1
    1    1    1    1    1    2    2    1    1    2    2    1    1    1    1
    1    1    1    1    1    1    1    1    1    1    1    1    1    1    1
    1    1    1    1    1    1    1    1    1    1    1    2    1    2    1
    1    1    1    1    1    1    1    1    1    1    1    1    1    1    1
    1    1    1    1    1    1    1    1    1    1    1    1    1    1    1
    1    1    1    1    1    2    1    1    2    1    1    1    1    1    1
    1    1    1    1    1    1    2    1    1    1    1    1    2    1    1
    1    1    1    1    1    1    1    1    1    1    2    1    1    2    1
    1    1    1    1    1    1    1    1    1    1    1    1    1    1    1
    1    1    1    1    1    1    1    1    1    1    1    1    1    1    1
    1    1    1    1    1    2    1    2    1    1    1    1    1    1    1
    1    1    1    1    1    1    1    1    1    1    1    1    1    1    1
    1    1    1    1    1    1    1    1    2    2    1    1    2    2    1
    1    1    1    1    1    1    1    1    2    1    1    2    1    1    2
    1    2    1    1
   -4   -3   -1    1    1   -0.002532    0.000000
   -4   -3   -1    2    1    0.000494    0.000000
   -4   -3   -1    3    1    0.000300   -0.000000
   -4   -3   -1    4    1   -0.000072    0.000000
   -4   -3   -1    5    1    0.001029   -0.000000
   -4   -3   -1    6    1    0.000174    0.000000
   -4   -3   -1    7    1   -0.000118    0.000000
   -4   -3   -1    8    1    0.000562   -0.000000
   -4   -3   -1    9    1   -0.001577   -0.000000
   -4   -3   -1    1    2   -0.000494   -0.000000
   -4   -3   -1    2    2   -0.004217    0.000000
   -4   -3   -1    3    2    0.002962    0.000000
   -4   -3   -1    4    2   -0.002056   -0.000000
   -4   -3   -1    5    2    0.000999   -0.000000
   -4   -3   -1    6    2    0.000983   -0.000000
   -4   -3   -1    7    2   -0.000691   -0.000000
   -4   -3   -1    8    2    0.000030   -0.000000
   -4   -3   -1    9    2   -0.000072    0.000000
   -4   -3   -1    1    3   -0.000300   -0.000000
   -4   -3   -1    2    3    0.002962   -0.000000
   -4   -3   -1    3    3   -0.002398   -0.000000
   -4   -3   -1    4    3    0.002407   -0.000000
   -4   -3   -1    5    3   -0.000341    0.000000
   -4   -3   -1    6    3    0.001421   -0.000000
   -4   -3   -1    7    3    0.000343   -0.000000
   -4   -3   -1    8    3    0.001312   -0.000000
   -4   -3   -1    9    3   -0.000349    0.000000
   -4   -3   -1    1    4    0.000072   -0.000000
   -4   -3   -1    2    4   -0.002056   -0.000000
   -4   -3   -1    3    4    0.002407    0.000000
   -4   -3   -1    4    4   -0.000649    0.000000
   -4   -3   -1    5    4    0.000264    0.000000
   -4   -3   -1    6    4    0.000401   -0.000000
   -4   -3   -1    7    4    0.001704    0.000000
   -4   -3   -1    8    4    0.001346    0.000000
   -4   -3   -1    9    4    0.001017   -0.000000
   -4   -3   -1    1    5    0.001029   -0.000000
   -4   -3   -1    2    5   -0.000999   -0.000000
   -4   -3   -1    3    5    0.000341   -0.000000
   -4   -3   -1    4    5   -0.000264   -0.000000
   -4   -3   -1    5    5   -0.000763    0.000000
   -4   -3   -1    6    5    0.000039   -0.000000
   -4   -3   -1    7    5   -0.000023    0.000000
   -4   -3   -1    8    5    0.000534   -0.000000
   -4   -3   -1    9    5   -0.001509   -0.000000
   -4   -3   -1    1    6    0.000174   -0.000000
   -4   -3   -1    2    6   -0.000983    0.000000
   -4   -3   -1    3    6   -0.001421   -0.000000
   -4   -3   -1    4    6   -0.000401    0.000000
   -4   -3   -1    5    6    0.000039    0.000000
   -4   -3   -1    6    6    0.000172    0.000000
   -4   -3   -1    7    6   -0.000072    0.000000
   -4   -3   -1    8    6    0.000147   -0.000000
   -4   -3   -1    9    6   -0.000036   -0.000000
   -4   -3   -1    1    7   -0.000118   -0.000000
   -4   -3   -1    2    7    0.000691    0.000000
   -4   -3   -1    3    7   -0.000343    0.000000
   -4   -3   -1    4    7   -0.001704    0.000000
   -4   -3   -1    5    7   -0.000023   -0.000000
   -4   -3   -1    6    7   -0.000072   -0.000000
   -4   -3   -1    7    7    0.000118    0.000000
   -4   -3   -1    8    7    0.000158    0.000000
   -4   -3   -1    9    7    0.000107    0.000000
   -4   -3   -1    1    8    0.000562   -0.000000
   -4   -3   -1    2    8   -0.000030    0.000000
   -4   -3   -1    3    8   -0.001312   -0.000000
   -4   -3   -1    4    8   -0.001346   -0.000000
   -4   -3   -1    5    8    0.000534   -0.000000
   -4   -3   -1    6    8    0.000147   -0.000000
   -4   -3   -1    7    8    0.000158    0.000000
   -4   -3   -1    8    8    0.000219    0.000000
   -4   -3   -1    9    8   -0.000308    0.000000
   -4   -3   -1    1    9   -0.001577    0.000000
   -4   -3   -1    2    9    0.000072   -0.000000
   -4   -3   -1    3    9    0.000349   -0.000000
   -4   -3   -1    4    9   -0.001017    0.000000
   -4   -3   -1    5    9   -0.001509    0.000000
   -4   -3   -1    6    9   -0.000036    0.000000
   -4   -3   -1    7    9    0.000107   -0.000000
   -4   -3   -1    8    9   -0.000308   -0.000000
   -4   -3   -1    9    9    0.000968    0.000000
   -4   -2   -2    1    1   -0.000804   -0.000000
   -4   -2   -2    2    1   -0.000702    0.000000
   -4   -2   -2    3    1   -0.001178    0.000000
   -4   -2   -2    4    1   -0.000369    0.000000
   -4   -2   -2    5    1   -0.000186    0.000000
   -4   -2   -2    6    1    0.000350    0.000000
   -4   -2   -2    7    1   -0.000498    0.000000
   -4   -2   -2    8    1   -0.000211   -0.000000
   -4   -2   -2    9    1    0.000196    0.000000
   -4   -2   -2    1    2    0.000702   -0.000000
   -4   -2   -2    2    2   -0.002977    0.000000
   -4   -2   -2    3    2   -0.004332   -0.000000
   -4   -2   -2    4    2   -0.002159   -0.000000
   -4   -2   -2    5    2    0.001346    0.000000
   -4   -2   -2    6    2   -0.000078   -0.000000
   -4   -2   -2    7    2    0.001769    0.000000
   -4   -2   -2    8    2   -0.000615   -0.000000
   -4   -2   -2    9    2    0.000199    0.000000
   -4   -2   -2    1    3    0.001178   -0.000000
   -4   -2   -2    2    3   -0.004332    0.000000
   -4   -2   -2    3    3   -0.007928    0.000000
   -4   -2   -2    4    3   -0.002580   -0.000000
   -4   -2   -2    5    3   -0.000560    0.000000
   -4   -2   -2    6    3   -0.001237    0.000000
   -4   -2   -2    7    3    0.000793   -0.000000
   -4   -2   -2    8    3    0.001906   -0.000000
   -4   -2   -2    9    3   -0.000734   -0.000000
   -4   -2   -2    1    4    0.000369    0.000000
   -4   -2   -2    2    4   -0.002159    0.000000
   -4   -2   -2    3    4   -0.002580    0.000000
   -4   -2   -2    4    4   -0.000559    0.000000
   -4   -2   -2    5    4    0.001028   -0.000000
   -4   -2   -2    6    4    0.000194    0.000000
   -4   -2   -2    7    4    0.000818   -0.000000
   -4   -2   -2    8    4   -0.000173   -0.000000
   -4   -2   -2    9    4   -0.000386    0.000000
   -4   -2   -2    1    5   -0.000186   -0.000000
   -4   -2   -2    2    5   -0.001346    0.000000
   -4   -2   -2    3    5    0.000560    0.000000
   -4   -2   -2    4    5   -0.001028   -0.000000
   -4   -2   -2    5    5   -0.000385   -0.000000
   -4   -2   -2    6    5   -0.000270    0.000000
   -4   -2   -2    7    5   -0.000274   -0.000000
   -4   -2   -2    8    5    0.000210   -0.000000
   -4   -2   -2    9    5   -0.000423    0.000000
   -4   -2   -2    1    6    0.000350    0.000000
   -4   -2   -2    2    6    0.000078    0.000000
   -4   -2   -2    3    6    0.001237    0.000000
   -4   -2   -2    4    6   -0.000194    0.000000
   -4   -2   -2    5    6   -0.000270    0.000000
   -4   -2   -2    6    6    0.000980   -0.000000
   -4   -2   -2    7    6    0.000053   -0.000000
   -4   -2   -2    8    6    0.000890    0.000000
   -4   -2   -2    9    6    0.000492    0.000000
   -4   -2   -2    1    7   -0.000498    0.000000
   -4   -2   -2    2    7   -0.001769   -0.000000
   -4   -2   -2    3    7   -0.000793   -0.000000
   -4   -2   -2    4    7   -0.000818    0.000000
   -4   -2   -2    5    7   -0.000274   -0.000000
   -4   -2   -2    6    7    0.000053    0.000000
   -4   -2   -2    7    7   -0.000144    0.000000
   -4   -2   -2    8    7    0.000411    0.000000
   -4   -2   -2    9    7    0.000214   -0.000000
   -4   -2   -2    1    8   -0.000211   -0.000000
   -4   -2   -2    2    8    0.000615    0.000000
   -4   -2   -2    3    8   -0.001906    0.000000
   -4   -2   -2    4    8    0.000173    0.000000
   -4   -2   -2    5    8    0.000210   -0.000000
   -4   -2   -2    6    8    0.000890    0.000000
   -4   -2   -2    7    8    0.000411   -0.000000
   -4   -2   -2    8    8    0.000015    0.000000
   -4   -2   -2    9    8    0.000361    0.000000
   -4   -2   -2    1    9    0.000196   -0.000000
   -4   -2   -2    2    9   -0.000199   -0.000000
   -4   -2   -2    3    9    0.000734    0.000000
   -4   -2   -2    4    9    0.000386    0.000000
   -4   -2   -2    5    9   -0.000423   -0.000000
   -4   -2   -2    6    9    0.000492    0.000000
   -4   -2   -2    7    9    0.000214   -0.000000
   -4   -2   -2    8    9    0.000361   -0.000000
   -4   -2   -2    9    9    0.000395    0.000000
   -4   -2   -1    1    1   -0.001170   -0.000000
   -4   -2   -1    2    1    0.000689    0.000000
   -4   -2   -1    3    1    0.000033   -0.000000
   -4   -2   -1    4    1    0.001266    0.000000
   -4   -2   -1    5    1    0.000796    0.000000
   -4   -2   -1    6    1   -0.000084   -0.000000
   -4   -2   -1    7    1    0.000017    0.000000
   -4   -2   -1    8    1   -0.001430    0.000000
   -4   -2   -1    9    1    0.000034   -0.000000
   -4   -2   -1    1    2   -0.000689   -0.000000
   -4   -2   -1    2    2    0.001175   -0.000000
   -4   -2   -1    3    2    0.000383    0.000000
   -4   -2   -1    4    2    0.000639    0.000000
   -4   -2   -1    5    2   -0.000018    0.000000
   -4   -2   -1    6    2    0.001121   -0.000000
   -4   -2   -1    7    2   -0.000714    0.000000
   -4   -2   -1    8    2   -0.000755   -0.000000
   -4   -2   -1    9    2    0.000442    0.000000
   -4   -2   -1    1    3   -0.000033    0.000000
   -4   -2   -1    2    3    0.000383   -0.000000
   -4   -2   -1    3    3   -0.003929    0.000000
   -4   -2   -1    4    3   -0.000298    0.000000
   -4   -2   -1    5    3    0.000798   -0.000000
   -4   -2   -1    6    3    0.000348   -0.000000
   -4   -2   -1    7    3    0.000537   -0.000000
   -4   -2   -1    8    3    0.000462   -0.000000
   -4   -2   -1    9    3    0.000650    0.000000
   -4   -2   -1    1    4   -0.001266    0.000000
   -4   -2   -1    2    4    0.000639    0.000000
   -4   -2   -1    3    4   -0.000298   -0.000000
   -4   -2   -1    4    4    0.001842    0.000000
   -4   -2   -1    5    4    0.001111   -0.000000
   -4   -2   -1    6    4    0.000879   -0.000000
   -4   -2   -1    7    4   -0.000398    0.000000
   -4   -2   -1    8    4   -0.000592    0.000000
   -4   -2   -1    9    4   -0.001108   -0.000000
   -4   -2   -1    1    5    0.000796   -0.000000
   -4   -2   -1    2    5    0.000018   -0.000000
   -4   -2   -1    3    5   -0.000798    0.000000
   -4   -2   -1    4    5   -0.001111   -0.000000
   -4   -2   -1    5    5    0.000272    0.000000
   -4   -2   -1    6    5    0.000392   -0.000000
   -4   -2   -1    7    5    0.000412   -0.000000
   -4   -2   -1    8    5    0.001078   -0.000000
   -4   -2   -1    9    5    0.000454   -0.000000
   -4   -2   -1    1    6   -0.000084    0.000000
   -4   -2   -1    2    6   -0.001121    0.000000
   -4   -2   -1    3    6   -0.000348    0.000000
   -4   -2   -1    4    6   -0.000879    0.000000
   -4   -2   -1    5    6    0.000392    0.000000
   -4   -2   -1    6    6   -0.000553   -0.000000
   -4   -2   -1    7    6    0.000422   -0.000000
   -4   -2   -1    8    6   -0.000246    0.000000
   -4   -2   -1    9    6    0.000532    0.000000
   -4   -2   -1    1    7    0.000017    0.000000
   -4   -2   -1    2    7    0.000714    0.000000
   -4   -2   -1    3    7   -0.000537   -0.000000
   -4   -2   -1    4    7    0.000398    0.000000
   -4   -2   -1    5    7    0.000412   -0.000000
   -4   -2   -1    6    7    0.000422   -0.000000
   -4   -2   -1    7    7    0.000445    0.000000
   -4   -2   -1    8    7    0.000123   -0.000000
   -4   -2   -1    9    7    0.000216    0.000000
   -4   -2   -1    1    8   -0.001430   -0.000000
   -4   -2   -1    2    8    0.000755    0.000000
   -4   -2   -1    3    8   -0.000462   -0.000000
   -4   -2   -1    4    8    0.000592   -0.000000
   -4   -2   -1    5    8    0.001078    0.000000
   -4   -2   -1    6    8   -0.000246   -0.000000
   -4   -2   -1    7    8    0.000123   -0.000000
   -4   -2   -1    8    8   -0.000850   -0.000000
   -4   -2   -1    9    8    0.000539   -0.000000
   -4   -2   -1    1    9    0.000034   -0.000000
   -4   -2   -1    2    9   -0.000442   -0.000000
   -4   -2   -1    3    9   -0.000650    0.000000
   -4   -2   -1    4    9    0.001108   -0.000000
   -4   -2   -1    5    9    0.000454    0.000000
   -4   -2   -1    6    9    0.000532    0.000000
   -4   -2   -1    7    9    0.000216   -0.000000
   -4   -2   -1    8    9    0.000539   -0.000000
   -4   -2   -1    9    9    0.000067   -0.000000
   -4   -1   -3    1    1   -0.002680   -0.000000
   -4   -1   -3    2    1   -0.000025    0.000000
   -4   -1   -3    3    1    0.000241    0.000000
   -4   -1   -3    4    1    0.000442    0.000000
   -4   -1   -3    5    1   -0.000613    0.000000
   -4   -1   -3    6    1   -0.001335   -0.000000
   -4   -1   -3    7    1    0.000957    0.000000
   -4   -1   -3    8    1   -0.000350   -0.000000
   -4   -1   -3    9    1    0.001011    0.000000
   -4   -1   -3    1    2    0.000025   -0.000000
   -4   -1   -3    2    2   -0.003341   -0.000000
   -4   -1   -3    3    2    0.003670    0.000000
   -4   -1   -3    4    2   -0.002545    0.000000
   -4   -1   -3    5    2   -0.000009    0.000000
   -4   -1   -3    6    2    0.001164   -0.000000
   -4   -1   -3    7    2    0.001643    0.000000
   -4   -1   -3    8    2    0.000729    0.000000
   -4   -1   -3    9    2    0.000248   -0.000000
   -4   -1   -3    1    3   -0.000241   -0.000000
   -4   -1   -3    2    3    0.003670    0.000000
   -4   -1   -3    3    3   -0.002383    0.000000
   -4   -1   -3    4    3    0.001285    0.000000
   -4   -1   -3    5    3   -0.000535    0.000000
   -4   -1   -3    6    3    0.000422   -0.000000
   -4   -1   -3    7    3    0.000493   -0.000000
   -4   -1   -3    8    3    0.001218   -0.000000
   -4   -1   -3    9    3    0.001411    0.000000
   -4   -1   -3    1    4   -0.000442   -0.000000
   -4   -1   -3    2    4   -0.002545    0.000000
   -4   -1   -3    3    4    0.001285   -0.000000
   -4   -1   -3    4    4   -0.001403    0.000000
   -4   -1   -3    5    4   -0.000744    0.000000
   -4   -1   -3    6    4   -0.000196    0.000000
   -4   -1   -3    7    4   -0.000405   -0.000000
   -4   -1   -3    8    4   -0.001472   -0.000000
   -4   -1   -3    9    4    0.000858    0.000000
   -4   -1   -3    1    5   -0.000613    0.000000
   -4   -1   -3    2    5    0.000009    0.000000
   -4   -1   -3    3    5    0.000535   -0.000000
   -4   -1   -3    4    5    0.000744   -0.000000
   -4   -1   -3    5    5    0.000097    0.000000
   -4   -1   -3    6    5    0.000321   -0.000000
   -4   -1   -3    7    5   -0.000229    0.000000
   -4   -1   -3    8    5    0.000126   -0.000000
   -4   -1   -3    9    5   -0.000354    0.000000
   -4   -1   -3    1    6   -0.001335   -0.000000
   -4   -1   -3    2    6   -0.001164    0.000000
   -4   -1   -3    3    6   -0.000422    0.000000
   -4   -1   -3    4    6    0.000196   -0.000000
   -4   -1   -3    5    6    0.000321    0.000000
   -4   -1   -3    6    6    0.000743    0.000000
   -4   -1   -3    7    6   -0.001004   -0.000000
   -4   -1   -3    8    6    0.000745    0.000000
   -4   -1   -3    9    6   -0.000346    0.000000
   -4   -1   -3    1    7    0.000957    0.000000
   -4   -1   -3    2    7   -0.001643    0.000000
   -4   -1   -3    3    7   -0.000493    0.000000
   -4   -1   -3    4    7    0.000405    0.000000
   -4   -1   -3    5    7   -0.000229    0.000000
   -4   -1   -3    6    7   -0.001004   -0.000000
   -4   -1   -3    7    7    0.000031   -0.000000
   -4   -1   -3    8    7    0.000644   -0.000000
   -4   -1   -3    9    7    0.000656   -0.000000
   -4   -1   -3    1    8   -0.000350   -0.000000
   -4   -1   -3    2    8   -0.000729   -0.000000
   -4   -1   -3    3    8   -0.001218    0.000000
   -4   -1   -3    4    8    0.001472    0.000000
   -4   -1   -3    5    8    0.000126    0.000000
   -4   -1   -3    6    8    0.000745    0.000000
   -4   -1   -3    7    8    0.000644   -0.000000
   -4   -1   -3    8    8   -0.000546    0.000000
   -4   -1   -3    9    8   -0.000386    0.000000
   -4   -1   -3    1    9    0.001011   -0.000000
   -4   -1   -3    2    9   -0.000248    0.000000
   -4   -1   -3    3    9   -0.001411    0.000000
   -4   -1   -3    4    9   -0.000858   -0.000000
   -4   -1   -3    5    9   -0.000354    0.000000
   -4   -1   -3    6    9   -0.000346   -0.000000
   -4   -1   -3    7    9    0.000656   -0.000000
   -4   -1   -3    8    9   -0.000386   -0.000000
   -4   -1   -3    9    9    0.000399    0.000000
   -4   -1   -2    1    1   -0.001141   -0.000000
   -4   -1   -2    2    1    0.001317    0.000000
   -4   -1   -2    3    1    0.000000    0.000000
   -4   -1   -2    4    1    0.000000    0.000000
   -4   -1   -2    5    1    0.000849    0.000000
   -4   -1   -2    6    1   -0.000000   -0.000000
   -4   -1   -2    7    1   -0.000000    0.000000
   -4   -1   -2    8    1   -0.001424   -0.000000
   -4   -1   -2    9    1   -0.000080   -0.000000
   -4   -1   -2    1    2   -0.001317    0.000000
   -4   -1   -2    2    2    0.002243   -0.000000
   -4   -1   -2    3    2   -0.000000   -0.000000
   -4   -1   -2    4    2    0.000000    0.000000
   -4   -1   -2    5    2   -0.000040    0.000000
   -4   -1   -2    6    2   -0.000000   -0.000000
   -4   -1   -2    7    2   -0.000000    0.000000
   -4   -1   -2    8    2   -0.001469   -0.000000
   -4   -1   -2    9    2    0.001519   -0.000000
   -4   -1   -2    1    3   -0.000000    0.000000
   -4   -1   -2    2    3   -0.000000   -0.000000
   -4   -1   -2    3    3   -0.003959    0.000000
   -4   -1   -2    4    3    0.000407    0.000000
   -4   -1   -2    5    3   -0.000000    0.000000
   -4   -1   -2    6    3    0.000738    0.000000
   -4   -1   -2    7    3    0.001070   -0.000000
   -4   -1   -2    8    3    0.000000    0.000000
   -4   -1   -2    9    3   -0.000000    0.000000
   -4   -1   -2    1    4   -0.000000    0.000000
   -4   -1   -2    2    4    0.000000   -0.000000
   -4   -1   -2    3    4    0.000407    0.000000
   -4   -1   -2    4    4    0.000763    0.000000
   -4   -1   -2    5    4   -0.000000   -0.000000
   -4   -1   -2    6    4    0.001082   -0.000000
   -4   -1   -2    7    4   -0.000817   -0.000000
   -4   -1   -2    8    4   -0.000000   -0.000000
   -4   -1   -2    9    4   -0.000000   -0.000000
   -4   -1   -2    1    5    0.000849   -0.000000
   -4   -1   -2    2    5    0.000040    0.000000
   -4   -1   -2    3    5    0.000000    0.000000
   -4   -1   -2    4    5    0.000000   -0.000000
   -4   -1   -2    5    5   -0.000111    0.000000
   -4   -1   -2    6    5    0.000000   -0.000000
   -4   -1   -2    7    5    0.000000   -0.000000
   -4   -1   -2    8    5    0.000673   -0.000000
   -4   -1   -2    9    5    0.000494   -0.000000
   -4   -1   -2    1    6   -0.000000    0.000000
   -4   -1   -2    2    6    0.000000    0.000000
   -4   -1   -2    3    6   -0.000738   -0.000000
   -4   -1   -2    4    6   -0.001082    0.000000
   -4   -1   -2    5    6    0.000000    0.000000
   -4   -1   -2    6    6    0.000378    0.000000
   -4   -1   -2    7    6    0.000794   -0.000000
   -4   -1   -2    8    6   -0.000000    0.000000
   -4   -1   -2    9    6    0.000000    0.000000
   -4   -1   -2    1    7   -0.000000   -0.000000
   -4   -1   -2    2    7    0.000000   -0.000000
   -4   -1   -2    3    7   -0.001070    0.000000
   -4   -1   -2    4    7    0.000817    0.000000
   -4   -1   -2    5    7    0.000000    0.000000
   -4   -1   -2    6    7    0.000794    0.000000
   -4   -1   -2    7    7    0.001163    0.000000
   -4   -1   -2    8    7   -0.000000   -0.000000
   -4   -1   -2    9    7   -0.000000   -0.000000
   -4   -1   -2    1    8   -0.001424   -0.000000
   -4   -1   -2    2    8    0.001469    0.000000
   -4   -1   -2    3    8   -0.000000   -0.000000
   -4   -1   -2    4    8    0.000000    0.000000
   -4   -1   -2    5    8    0.000673   -0.000000
   -4   -1   -2    6    8   -0.000000    0.000000
   -4   -1   -2    7    8   -0.000000    0.000000
   -4   -1   -2    8    8   -0.001181   -0.000000
   -4   -1   -2    9    8   -0.000260   -0.000000
   -4   -1   -2    1    9   -0.000080   -0.000000
   -4   -1   -2    2    9   -0.001519    0.000000
   -4   -1   -2    3    9    0.000000   -0.000000
   -4   -1   -2    4    9    0.000000   -0.000000
   -4   -1   -2    5    9    0.000494    0.000000
   -4   -1   -2    6    9    0.000000    0.000000
   -4   -1   -2    7    9   -0.000000   -0.000000
   -4   -1   -2    8    9   -0.000260   -0.000000
   -4   -1   -2    9    9   -0.000856   -0.000000
   -3   -4   -2    1    1   -0.000992   -0.000000
   -3   -4   -2    2    1   -0.000317   -0.000000
   -3   -4   -2    3    1    0.000060   -0.000000
   -3   -4   -2    4    1    0.001123   -0.000000
   -3   -4   -2    5    1   -0.000828    0.000000
   -3   -4   -2    6    1   -0.000705    0.000000
   -3   -4   -2    7    1   -0.001101   -0.000000
   -3   -4   -2    8    1    0.000154   -0.000000
   -3   -4   -2    9    1   -0.000397   -0.000000
   -3   -4   -2    1    2    0.000317    0.000000
   -3   -4   -2    2    2   -0.001885    0.000000
   -3   -4   -2    3    2   -0.001634   -0.000000
   -3   -4   -2    4    2   -0.002551    0.000000
   -3   -4   -2    5    2   -0.000828    0.000000
   -3   -4   -2    6    2    0.000982    0.000000
   -3   -4   -2    7    2    0.000460   -0.000000
   -3   -4   -2    8    2   -0.000518   -0.000000
   -3   -4   -2    9    2    0.000211   -0.000000
   -3   -4   -2    1    3   -0.000060   -0.000000
   -3   -4   -2    2    3   -0.001634   -0.000000
   -3   -4   -2    3    3   -0.000066    0.000000
   -3   -4   -2    4    3   -0.000958   -0.000000
   -3   -4   -2    5    3    0.000283   -0.000000
   -3   -4   -2    6    3    0.000660   -0.000000
   -3   -4   -2    7    3   -0.000193    0.000000
   -3   -4   -2    8    3    0.000181   -0.000000
   -3   -4   -2    9    3   -0.001128   -0.000000
   -3   -4   -2    1    4   -0.001123   -0.000000
   -3   -4   -2    2    4   -0.002551   -0.000000
   -3   -4   -2    3    4   -0.000958    0.000000
   -3   -4   -2    4    4    0.000899   -0.000000
   -3   -4   -2    5    4   -0.000553    0.000000
   -3   -4   -2    6    4   -0.001452    0.000000
   -3   -4   -2    7    4    0.000351    0.000000
   -3   -4   -2    8    4   -0.000157    0.000000
   -3   -4   -2    9    4   -0.001046   -0.000000
   -3   -4   -2    1    5   -0.000828    0.000000
   -3   -4   -2    2    5    0.000828    0.000000
   -3   -4   -2    3    5   -0.000283   -0.000000
   -3   -4   -2    4    5    0.000553    0.000000
   -3   -4   -2    5    5   -0.000153   -0.000000
   -3   -4   -2    6    5   -0.000390   -0.000000
   -3   -4   -2    7    5   -0.001204   -0.000000
   -3   -4   -2    8    5    0.000535   -0.000000
   -3   -4   -2    9    5    0.000532   -0.000000
   -3   -4   -2    1    6   -0.000705   -0.000000
   -3   -4   -2    2    6   -0.000982    0.000000
   -3   -4   -2    3    6   -0.000660   -0.000000
   -3   -4   -2    4    6    0.001452   -0.000000
   -3   -4   -2    5    6   -0.000390   -0.000000
   -3   -4   -2    6    6   -0.000389    0.000000
   -3   -4   -2    7    6    0.000135    0.000000
   -3   -4   -2    8    6   -0.000153   -0.000000
   -3   -4   -2    9    6   -0.000566   -0.000000
   -3   -4   -2    1    7   -0.001101    0.000000
   -3   -4   -2    2    7   -0.000460   -0.000000
   -3   -4   -2    3    7    0.000193   -0.000000
   -3   -4   -2    4    7   -0.000351    0.000000
   -3   -4   -2    5    7   -0.001204    0.000000
   -3   -4   -2    6    7    0.000135    0.000000
   -3   -4   -2    7    7   -0.000675    0.000000
   -3   -4   -2    8    7    0.000234    0.000000
   -3   -4   -2    9    7   -0.000422    0.000000
   -3   -4   -2    1    8    0.000154   -0.000000
   -3   -4   -2    2    8    0.000518   -0.000000
   -3   -4   -2    3    8   -0.000181   -0.000000
   -3   -4   -2    4    8    0.000157    0.000000
   -3   -4   -2    5    8    0.000535   -0.000000
   -3   -4   -2    6    8   -0.000153    0.000000
   -3   -4   -2    7    8    0.000234    0.000000
   -3   -4   -2    8    8    0.000303   -0.000000
   -3   -4   -2    9    8    0.000342    0.000000
   -3   -4   -2    1    9   -0.000397    0.000000
   -3   -4   -2    2    9   -0.000211    0.000000
   -3   -4   -2    3    9    0.001128   -0.000000
   -3   -4   -2    4    9    0.001046    0.000000
   -3   -4   -2    5    9    0.000532   -0.000000
   -3   -4   -2    6    9   -0.000566   -0.000000
   -3   -4   -2    7    9   -0.000422   -0.000000
   -3   -4   -2    8    9    0.000342    0.000000
   -3   -4   -2    9    9    0.000257    0.000000
   -3   -4   -1    1    1   -0.002532    0.000000
   -3   -4   -1    2    1    0.000494   -0.000000
   -3   -4   -1    3    1   -0.000300    0.000000
   -3   -4   -1    4    1    0.000072    0.000000
   -3   -4   -1    5    1    0.001029   -0.000000
   -3   -4   -1    6    1   -0.000174    0.000000
   -3   -4   -1    7    1    0.000118   -0.000000
   -3   -4   -1    8    1    0.000562    0.000000
   -3   -4   -1    9    1   -0.001577   -0.000000
   -3   -4   -1    1    2   -0.000494   -0.000000
   -3   -4   -1    2    2   -0.004217    0.000000
   -3   -4   -1    3    2   -0.002962    0.000000
   -3   -4   -1    4    2    0.002056   -0.000000
   -3   -4   -1    5    2    0.000999   -0.000000
   -3   -4   -1    6    2   -0.000983   -0.000000
   -3   -4   -1    7    2    0.000691   -0.000000
   -3   -4   -1    8    2    0.000030   -0.000000
   -3   -4   -1    9    2   -0.000072    0.000000
   -3   -4   -1    1    3    0.000300    0.000000
   -3   -4   -1    2    3   -0.002962    0.000000
   -3   -4   -1    3    3   -0.002398    0.000000
   -3   -4   -1    4    3    0.002407   -0.000000
   -3   -4   -1    5    3    0.000341    0.000000
   -3   -4   -1    6    3    0.001421   -0.000000
   -3   -4   -1    7    3    0.000343   -0.000000
   -3   -4   -1    8    3   -0.001312    0.000000
   -3   -4   -1    9    3    0.000349   -0.000000
   -3   -4   -1    1    4   -0.000072   -0.000000
   -3   -4   -1    2    4    0.002056   -0.000000
   -3   -4   -1    3    4    0.002407    0.000000
   -3   -4   -1    4    4   -0.000649    0.000000
   -3   -4   -1    5    4   -0.000264    0.000000
   -3   -4   -1    6    4    0.000401   -0.000000
   -3   -4   -1    7    4    0.001704    0.000000
   -3   -4   -1    8    4   -0.001346    0.000000
   -3   -4   -1    9    4   -0.001017   -0.000000
   -3   -4   -1    1    5    0.001029   -0.000000
   -3   -4   -1    2    5   -0.000999   -0.000000
   -3   -4   -1    3    5   -0.000341   -0.000000
   -3   -4   -1    4    5    0.000264   -0.000000
   -3   -4   -1    5    5   -0.000763    0.000000
   -3   -4   -1    6    5   -0.000039   -0.000000
   -3   -4   -1    7    5    0.000023    0.000000
   -3   -4   -1    8    5    0.000534    0.000000
   -3   -4   -1    9    5   -0.001509    0.000000
   -3   -4   -1    1    6   -0.000174    0.000000
   -3   -4   -1    2    6    0.000983    0.000000
   -3   -4   -1    3    6   -0.001421   -0.000000
   -3   -4   -1    4    6   -0.000401    0.000000
   -3   -4   -1    5    6   -0.000039    0.000000
   -3   -4   -1    6    6    0.000172    0.000000
   -3   -4   -1    7    6   -0.000072    0.000000
   -3   -4   -1    8    6   -0.000147   -0.000000
   -3   -4   -1    9    6    0.000036   -0.000000
   -3   -4   -1    1    7    0.000118    0.000000
   -3   -4   -1    2    7   -0.000691    0.000000
   -3   -4   -1    3    7   -0.000343    0.000000
   -3   -4   -1    4    7   -0.001704   -0.000000
   -3   -4   -1    5    7    0.000023    0.000000
   -3   -4   -1    6    7   -0.000072   -0.000000
   -3   -4   -1    7    7    0.000118   -0.000000
   -3   -4   -1    8    7   -0.000158   -0.000000
   -3   -4   -1    9    7   -0.000107   -0.000000
   -3   -4   -1    1    8    0.000562    0.000000
   -3   -4   -1    2    8   -0.000030    0.000000
   -3   -4   -1    3    8    0.001312    0.000000
   -3   -4   -1    4    8    0.001346   -0.000000
   -3   -4   -1    5    8    0.000534    0.000000
   -3   -4   -1    6    8   -0.000147   -0.000000
   -3   -4   -1    7    8   -0.000158   -0.000000
   -3   -4   -1    8    8    0.000219    0.000000
   -3   -4   -1    9    8   -0.000308   -0.000000
   -3   -4   -1    1    9   -0.001577    0.000000
   -3   -4   -1    2    9    0.000072   -0.000000
   -3   -4   -1    3    9   -0.000349    0.000000
   -3   -4   -1    4    9    0.001017   -0.000000
   -3   -4   -1    5    9   -0.001509   -0.000000
   -3   -4   -1    6    9    0.000036   -0.000000
   -3   -4   -1    7    9   -0.000107    0.000000
   -3   -4   -1    8    9   -0.000308   -0.000000
   -3   -4   -1    9    9    0.000968   -0.000000
   -3   -3   -3    1    1   -0.007195   -0.000000
   -3   -3   -3    2    1   -0.000000   -0.000000
   -3   -3   -3    3    1   -0.000000   -0.000000
   -3   -3   -3    4    1    0.000000   -0.000000
   -3   -3   -3    5    1   -0.002030   -0.000000
   -3   -3   -3    6    1   -0.001765    0.000000
   -3   -3   -3    7    1   -0.002518   -0.000000
   -3   -3   -3    8    1    0.000332    0.000000
   -3   -3   -3    9    1   -0.000905    0.000000
   -3   -3   -3    1    2   -0.000000    0.000000
   -3   -3   -3    2    2    0.011741   -0.000000
   -3   -3   -3    3    2    0.002538    0.000000
   -3   -3   -3    4    2    0.003737    0.000000
   -3   -3   -3    5    2    0.000000   -0.000000
   -3   -3   -3    6    2   -0.000000   -0.000000
   -3   -3   -3    7    2    0.000000   -0.000000
   -3   -3   -3    8    2    0.000000    0.000000
   -3   -3   -3    9    2   -0.000000   -0.000000
   -3   -3   -3    1    3   -0.000000    0.000000
   -3   -3   -3    2    3    0.002538   -0.000000
   -3   -3   -3    3    3    0.005346   -0.000000
   -3   -3   -3    4    3    0.001235    0.000000
   -3   -3   -3    5    3   -0.000000   -0.000000
   -3   -3   -3    6    3    0.000000   -0.000000
   -3   -3   -3    7    3   -0.000000    0.000000
   -3   -3   -3    8    3    0.000000    0.000000
   -3   -3   -3    9    3   -0.000000   -0.000000
   -3   -3   -3    1    4    0.000000    0.000000
   -3   -3   -3    2    4    0.003737   -0.000000
   -3   -3   -3    3    4    0.001235   -0.000000
   -3   -3   -3    4    4    0.006237   -0.000000
   -3   -3   -3    5    4    0.000000   -0.000000
   -3   -3   -3    6    4    0.000000    0.000000
   -3   -3   -3    7    4    0.000000   -0.000000
   -3   -3   -3    8    4    0.000000    0.000000
   -3   -3   -3    9    4   -0.000000   -0.000000
   -3   -3   -3    1    5   -0.002030    0.000000
   -3   -3   -3    2    5    0.000000    0.000000
   -3   -3   -3    3    5   -0.000000    0.000000
   -3   -3   -3    4    5    0.000000    0.000000
   -3   -3   -3    5    5   -0.000208   -0.000000
   -3   -3   -3    6    5   -0.002368    0.000000
   -3   -3   -3    7    5   -0.003370   -0.000000
   -3   -3   -3    8    5    0.000297   -0.000000
   -3   -3   -3    9    5   -0.000813    0.000000
   -3   -3   -3    1    6   -0.001765   -0.000000
   -3   -3   -3    2    6   -0.000000    0.000000
   -3   -3   -3    3    6    0.000000    0.000000
   -3   -3   -3    4    6    0.000000   -0.000000
   -3   -3   -3    5    6   -0.002368   -0.000000
   -3   -3   -3    6    6   -0.000739   -0.000000
   -3   -3   -3    7    6   -0.002208   -0.000000
   -3   -3   -3    8    6    0.000688   -0.000000
   -3   -3   -3    9    6   -0.000920    0.000000
   -3   -3   -3    1    7   -0.002518    0.000000
   -3   -3   -3    2    7    0.000000    0.000000
   -3   -3   -3    3    7   -0.000000   -0.000000
   -3   -3   -3    4    7    0.000000    0.000000
   -3   -3   -3    5    7   -0.003370    0.000000
   -3   -3   -3    6    7   -0.002208    0.000000
   -3   -3   -3    7    7   -0.002312   -0.000000
   -3   -3   -3    8    7    0.000293    0.000000
   -3   -3   -3    9    7   -0.001543    0.000000
   -3   -3   -3    1    8    0.000332   -0.000000
   -3   -3   -3    2    8    0.000000   -0.000000
   -3   -3   -3    3    8    0.000000   -0.000000
   -3   -3   -3    4    8    0.000000   -0.000000
   -3   -3   -3    5    8    0.000297    0.000000
   -3   -3   -3    6    8    0.000688    0.000000
   -3   -3   -3    7    8    0.000293   -0.000000
   -3   -3   -3    8    8    0.002123   -0.000000
   -3   -3   -3    9    8    0.000683    0.000000
   -3   -3   -3    1    9   -0.000905   -0.000000
   -3   -3   -3    2    9   -0.000000    0.000000
   -3   -3   -3    3    9   -0.000000    0.000000
   -3   -3   -3    4    9   -0.000000    0.000000
   -3   -3   -3    5    9   -0.000813   -0.000000
   -3   -3   -3    6    9   -0.000920   -0.000000
   -3   -3   -3    7    9   -0.001543   -0.000000
   -3   -3   -3    8    9    0.000683   -0.000000
   -3   -3   -3    9    9    0.000446   -0.000000
   -3   -3   -2    1    1    0.000325   -0.000000
   -3   -3   -2    2    1    0.000265    0.000000
   -3   -3   -2    3    1   -0.000320   -0.000000
   -3   -3   -2    4    1   -0.000364   -0.000000
   -3   -3   -2    5    1   -0.001718    0.000000
   -3   -3   -2    6    1   -0.001321    0.000000
   -3   -3   -2    7    1   -0.001873    0.000000
   -3   -3   -2    8    1    0.000160   -0.000000
   -3   -3   -2    9    1   -0.000416    0.000000
   -3   -3   -2    1    2   -0.000265   -0.000000
   -3   -3   -2    2    2    0.006675   -0.000000
   -3   -3   -2    3    2    0.000094   -0.000000
   -3   -3   -2    4    2    0.000208   -0.000000
   -3   -3   -2    5    2   -0.002108    0.000000
   -3   -3   -2    6    2    0.000230   -0.000000
   -3   -3   -2    7    2    0.000323    0.000000
   -3   -3   -2    8    2   -0.000912   -0.000000
   -3   -3   -2    9    2    0.002562    0.000000
   -3   -3   -2    1    3    0.000320   -0.000000
   -3   -3   -2    2    3    0.000094   -0.000000
   -3   -3   -2    3    3   -0.000189    0.000000
   -3   -3   -2    4    3   -0.006173   -0.000000
   -3   -3   -2    5    3   -0.003672   -0.000000
   -3   -3   -2    6    3   -0.001228   -0.000000
   -3   -3   -2    7    3   -0.001914    0.000000
   -3   -3   -2    8    3    0.001171    0.000000
   -3   -3   -2    9    3   -0.000225    0.000000
   -3   -3   -2    1    4    0.000364    0.000000
   -3   -3   -2    2    4    0.000208   -0.000000
   -3   -3   -2    3    4   -0.006173   -0.000000
   -3   -3   -2    4    4   -0.004609   -0.000000
   -3   -3   -2    5    4   -0.005301    0.000000
   -3   -3   -2    6    4   -0.001965    0.000000
   -3   -3   -2    7    4   -0.002666    0.000000
   -3   -3   -2    8    4   -0.000420   -0.000000
   -3   -3   -2    9    4   -0.001035   -0.000000
   -3   -3   -2    1    5   -0.001718    0.000000
   -3   -3   -2    2    5    0.002108   -0.000000
   -3   -3   -2    3    5    0.003672    0.000000
   -3   -3   -2    4    5    0.005301    0.000000
   -3   -3   -2    5    5   -0.003273    0.000000
   -3   -3   -2    6    5    0.000010    0.000000
   -3   -3   -2    7    5    0.000016    0.000000
   -3   -3   -2    8    5    0.000124   -0.000000
   -3   -3   -2    9    5   -0.000351   -0.000000
   -3   -3   -2    1    6   -0.001321    0.000000
   -3   -3   -2    2    6   -0.000230   -0.000000
   -3   -3   -2    3    6    0.001228    0.000000
   -3   -3   -2    4    6    0.001965   -0.000000
   -3   -3   -2    5    6    0.000010    0.000000
   -3   -3   -2    6    6   -0.000538   -0.000000
   -3   -3   -2    7    6   -0.000844    0.000000
   -3   -3   -2    8    6    0.000207   -0.000000
   -3   -3   -2    9    6   -0.000511    0.000000
   -3   -3   -2    1    7   -0.001873    0.000000
   -3   -3   -2    2    7   -0.000323   -0.000000
   -3   -3   -2    3    7    0.001914   -0.000000
   -3   -3   -2    4    7    0.002666   -0.000000
   -3   -3   -2    5    7    0.000016    0.000000
   -3   -3   -2    6    7   -0.000844    0.000000
   -3   -3   -2    7    7   -0.001128    0.000000
   -3   -3   -2    8    7    0.000253   -0.000000
   -3   -3   -2    9    7   -0.000734    0.000000
   -3   -3   -2    1    8    0.000160   -0.000000
   -3   -3   -2    2    8    0.000912    0.000000
   -3   -3   -2    3    8   -0.001171   -0.000000
   -3   -3   -2    4    8    0.000420    0.000000
   -3   -3   -2    5    8    0.000124   -0.000000
   -3   -3   -2    6    8    0.000207   -0.000000
   -3   -3   -2    7    8    0.000253   -0.000000
   -3   -3   -2    8    8   -0.000187    0.000000
   -3   -3   -2    9    8    0.000137    0.000000
   -3   -3   -2    1    9   -0.000416   -0.000000
   -3   -3   -2    2    9   -0.002562   -0.000000
   -3   -3   -2    3    9    0.000225   -0.000000
   -3   -3   -2    4    9    0.001035    0.000000
   -3   -3   -2    5    9   -0.000351    0.000000
   -3   -3   -2    6    9   -0.000511   -0.000000
   -3   -3   -2    7    9   -0.000734    0.000000
   -3   -3   -2    8    9    0.000137   -0.000000
   -3   -3   -2    9    9   -0.000487    0.000000
   -3   -3   -1    1    1   -0.001274    0.000000
   -3   -3   -1    2    1    0.001616   -0.000000
   -3   -3   -1    3    1    0.001763   -0.000000
   -3   -3   -1    4    1    0.002435   -0.000000
   -3   -3   -1    5    1   -0.000472   -0.000000
   -3   -3   -1    6    1   -0.000111   -0.000000
   -3   -3   -1    7    1   -0.000110    0.000000
   -3   -3   -1    8    1    0.000007    0.000000
   -3   -3   -1    9    1   -0.000089    0.000000
   -3   -3   -1    1    2   -0.001616   -0.000000
   -3   -3   -1    2    2    0.004659   -0.000000
   -3   -3   -1    3    2    0.000176    0.000000
   -3   -3   -1    4    2    0.000253   -0.000000
   -3   -3   -1    5    2    0.000373    0.000000
   -3   -3   -1    6    2    0.000062   -0.000000
   -3   -3   -1    7    2    0.000072    0.000000
   -3   -3   -1    8    2    0.000199    0.000000
   -3   -3   -1    9    2   -0.000484    0.000000
   -3   -3   -1    1    3   -0.001763   -0.000000
   -3   -3   -1    2    3    0.000176    0.000000
   -3   -3   -1    3    3    0.000552   -0.000000
   -3   -3   -1    4    3    0.004424    0.000000
   -3   -3   -1    5    3    0.002541    0.000000
   -3   -3   -1    6    3   -0.000933   -0.000000
   -3   -3   -1    7    3    0.001105   -0.000000
   -3   -3   -1    8    3   -0.000628   -0.000000
   -3   -3   -1    9    3   -0.001758    0.000000
   -3   -3   -1    1    4   -0.002435    0.000000
   -3   -3   -1    2    4    0.000253    0.000000
   -3   -3   -1    3    4    0.004424   -0.000000
   -3   -3   -1    4    4    0.003851    0.000000
   -3   -3   -1    5    4    0.003627   -0.000000
   -3   -3   -1    6    4    0.001093   -0.000000
   -3   -3   -1    7    4   -0.000114   -0.000000
   -3   -3   -1    8    4    0.001516    0.000000
   -3   -3   -1    9    4   -0.001697   -0.000000
   -3   -3   -1    1    5   -0.000472   -0.000000
   -3   -3   -1    2    5   -0.000373   -0.000000
   -3   -3   -1    3    5   -0.002541    0.000000
   -3   -3   -1    4    5   -0.003627   -0.000000
   -3   -3   -1    5    5    0.001099    0.000000
   -3   -3   -1    6    5    0.000385    0.000000
   -3   -3   -1    7    5    0.000537    0.000000
   -3   -3   -1    8    5    0.000495    0.000000
   -3   -3   -1    9    5   -0.001348    0.000000
   -3   -3   -1    1    6   -0.000111    0.000000
   -3   -3   -1    2    6   -0.000062    0.000000
   -3   -3   -1    3    6    0.000933    0.000000
   -3   -3   -1    4    6   -0.001093    0.000000
   -3   -3   -1    5    6    0.000385    0.000000
   -3   -3   -1    6    6    0.000982   -0.000000
   -3   -3   -1    7    6    0.000820   -0.000000
   -3   -3   -1    8    6   -0.000489   -0.000000
   -3   -3   -1    9    6    0.000536    0.000000
   -3   -3   -1    1    7   -0.000110   -0.000000
   -3   -3   -1    2    7   -0.000072    0.000000
   -3   -3   -1    3    7   -0.001105    0.000000
   -3   -3   -1    4    7    0.000114    0.000000
   -3   -3   -1    5    7    0.000537   -0.000000
   -3   -3   -1    6    7    0.000820   -0.000000
   -3   -3   -1    7    7    0.001565   -0.000000
   -3   -3   -1    8    7   -0.000110   -0.000000
   -3   -3   -1    9    7    0.000937    0.000000
   -3   -3   -1    1    8    0.000007    0.000000
   -3   -3   -1    2    8   -0.000199    0.000000
   -3   -3   -1    3    8    0.000628   -0.000000
   -3   -3   -1    4    8   -0.001516   -0.000000
   -3   -3   -1    5    8    0.000495    0.000000
   -3   -3   -1    6    8   -0.000489   -0.000000
   -3   -3   -1    7    8   -0.000110   -0.000000
   -3   -3   -1    8    8   -0.000975   -0.000000
   -3   -3   -1    9    8   -0.000210   -0.000000
   -3   -3   -1    1    9   -0.000089   -0.000000
   -3   -3   -1    2    9    0.000484   -0.000000
   -3   -3   -1    3    9    0.001758    0.000000
   -3   -3   -1    4    9    0.001697   -0.000000
   -3   -3   -1    5    9   -0.001348    0.000000
   -3   -3   -1    6    9    0.000536    0.000000
   -3   -3   -1    7    9    0.000937    0.000000
   -3   -3   -1    8    9   -0.000210   -0.000000
   -3   -3   -1    9    9   -0.000461    0.000000
   -3   -3    0    1    1   -0.002363    0.000000
   -3   -3    0    2    1    0.000000    0.000000
   -3   -3    0    3    1    0.000000    0.000000
   -3   -3    0    4    1    0.000000    0.000000
   -3   -3    0    5    1    0.001077    0.000000
   -3   -3    0    6    1   -0.000000    0.000000
   -3   -3    0    7    1   -0.000000   -0.000000
   -3   -3    0    8    1    0.000643    0.000000
   -3   -3    0    9    1   -0.001882    0.000000
   -3   -3    0    1    2    0.000000   -0.000000
   -3   -3    0    2    2    0.004424    0.000000
   -3   -3    0    3    2   -0.000000    0.000000
   -3   -3    0    4    2    0.000000   -0.000000
   -3   -3    0    5    2    0.000000   -0.000000
   -3   -3    0    6    2    0.000000    0.000000
   -3   -3    0    7    2   -0.000000    0.000000
   -3   -3    0    8    2   -0.000000    0.000000
   -3   -3    0    9    2   -0.000000   -0.000000
   -3   -3    0    1    3    0.000000   -0.000000
   -3   -3    0    2    3   -0.000000   -0.000000
   -3   -3    0    3    3    0.006604    0.000000
   -3   -3    0    4    3    0.003096    0.000000
   -3   -3    0    5    3   -0.000000   -0.000000
   -3   -3    0    6    3    0.000000   -0.000000
   -3   -3    0    7    3   -0.000000    0.000000
   -3   -3    0    8    3    0.000000   -0.000000
   -3   -3    0    9    3   -0.000000   -0.000000
   -3   -3    0    1    4    0.000000   -0.000000
   -3   -3    0    2    4    0.000000    0.000000
   -3   -3    0    3    4    0.003096   -0.000000
   -3   -3    0    4    4    0.008819    0.000000
   -3   -3    0    5    4    0.000000   -0.000000
   -3   -3    0    6    4    0.000000    0.000000
   -3   -3    0    7    4   -0.000000    0.000000
   -3   -3    0    8    4    0.000000   -0.000000
   -3   -3    0    9    4    0.000000    0.000000
   -3   -3    0    1    5    0.001077   -0.000000
   -3   -3    0    2    5    0.000000    0.000000
   -3   -3    0    3    5   -0.000000    0.000000
   -3   -3    0    4    5    0.000000    0.000000
   -3   -3    0    5    5    0.002790    0.000000
   -3   -3    0    6    5    0.000000    0.000000
   -3   -3    0    7    5   -0.000000    0.000000
   -3   -3    0    8    5   -0.000464    0.000000
   -3   -3    0    9    5    0.001285    0.000000
   -3   -3    0    1    6   -0.000000   -0.000000
   -3   -3    0    2    6    0.000000   -0.000000
   -3   -3    0    3    6    0.000000    0.000000
   -3   -3    0    4    6    0.000000   -0.000000
   -3   -3    0    5    6    0.000000   -0.000000
   -3   -3    0    6    6   -0.001373    0.000000
   -3   -3    0    7    6    0.000319   -0.000000
   -3   -3    0    8    6    0.000000   -0.000000
   -3   -3    0    9    6   -0.000000   -0.000000
   -3   -3    0    1    7   -0.000000    0.000000
   -3   -3    0    2    7   -0.000000   -0.000000
   -3   -3    0    3    7   -0.000000   -0.000000
   -3   -3    0    4    7   -0.000000   -0.000000
   -3   -3    0    5    7   -0.000000   -0.000000
   -3   -3    0    6    7    0.000319    0.000000
   -3   -3    0    7    7   -0.001149    0.000000
   -3   -3    0    8    7    0.000000    0.000000
   -3   -3    0    9    7   -0.000000    0.000000
   -3   -3    0    1    8    0.000643   -0.000000
   -3   -3    0    2    8   -0.000000   -0.000000
   -3   -3    0    3    8    0.000000    0.000000
   -3   -3    0    4    8    0.000000    0.000000
   -3   -3    0    5    8   -0.000464   -0.000000
   -3   -3    0    6    8    0.000000    0.000000
   -3   -3    0    7    8    0.000000   -0.000000
   -3   -3    0    8    8   -0.000706    0.000000
   -3   -3    0    9    8   -0.000632   -0.000000
   -3   -3    0    1    9   -0.001882   -0.000000
   -3   -3    0    2    9   -0.000000    0.000000
   -3   -3    0    3    9   -0.000000    0.000000
   -3   -3    0    4    9    0.000000   -0.000000
   -3   -3    0    5    9    0.001285   -0.000000
   -3   -3    0    6    9   -0.000000    0.000000
   -3   -3    0    7    9   -0.000000   -0.000000
   -3   -3    0    8    9   -0.000632    0.000000
   -3   -3    0    9    9    0.000978    0.000000
   -3   -2   -3    1    1    0.000655    0.000000
   -3   -2   -3    2    1   -0.000311   -0.000000
   -3   -2   -3    3    1   -0.000445   -0.000000
   -3   -2   -3    4    1    0.000226    0.000000
   -3   -2   -3    5    1   -0.001225    0.000000
   -3   -2   -3    6    1   -0.000927    0.000000
   -3   -2   -3    7    1   -0.002055    0.000000
   -3   -2   -3    8    1    0.000403   -0.000000
   -3   -2   -3    9    1   -0.000894    0.000000
   -3   -2   -3    1    2    0.000311   -0.000000
   -3   -2   -3    2    2   -0.001810   -0.000000
   -3   -2   -3    3    2   -0.005470   -0.000000
   -3   -2   -3    4    2    0.004682   -0.000000
   -3   -2   -3    5    2   -0.000339    0.000000
   -3   -2   -3    6    2   -0.000403    0.000000
   -3   -2   -3    7    2   -0.005570    0.000000
   -3   -2   -3    8    2    0.002195    0.000000
   -3   -2   -3    9    2   -0.001513   -0.000000
   -3   -2   -3    1    3    0.000445   -0.000000
   -3   -2   -3    2    3   -0.005470   -0.000000
   -3   -2   -3    3    3   -0.000415    0.000000
   -3   -2   -3    4    3    0.003036   -0.000000
   -3   -2   -3    5    3   -0.001758    0.000000
   -3   -2   -3    6    3   -0.000842    0.000000
   -3   -2   -3    7    3   -0.003270   -0.000000
   -3   -2   -3    8    3    0.002276    0.000000
   -3   -2   -3    9    3   -0.000955   -0.000000
   -3   -2   -3    1    4   -0.000226   -0.000000
   -3   -2   -3    2    4    0.004682   -0.000000
   -3   -2   -3    3    4    0.003036   -0.000000
   -3   -2   -3    4    4    0.003856   -0.000000
   -3   -2   -3    5    4    0.001510    0.000000
   -3   -2   -3    6    4    0.003005   -0.000000
   -3   -2   -3    7    4    0.001043    0.000000
   -3   -2   -3    8    4   -0.000118   -0.000000
   -3   -2   -3    9    4   -0.000405    0.000000
   -3   -2   -3    1    5   -0.001225    0.000000
   -3   -2   -3    2    5    0.000339   -0.000000
   -3   -2   -3    3    5    0.001758   -0.000000
   -3   -2   -3    4    5   -0.001510   -0.000000
   -3   -2   -3    5    5   -0.001030   -0.000000
   -3   -2   -3    6    5   -0.000938    0.000000
   -3   -2   -3    7    5   -0.000108    0.000000
   -3   -2   -3    8    5   -0.000499    0.000000
   -3   -2   -3    9    5   -0.000354    0.000000
   -3   -2   -3    1    6   -0.000927    0.000000
   -3   -2   -3    2    6    0.000403   -0.000000
   -3   -2   -3    3    6    0.000842    0.000000
   -3   -2   -3    4    6   -0.003005    0.000000
   -3   -2   -3    5    6   -0.000938    0.000000
   -3   -2   -3    6    6   -0.000968   -0.000000
   -3   -2   -3    7    6   -0.000638   -0.000000
   -3   -2   -3    8    6   -0.000165   -0.000000
   -3   -2   -3    9    6   -0.000278   -0.000000
   -3   -2   -3    1    7   -0.002055    0.000000
   -3   -2   -3    2    7    0.005570   -0.000000
   -3   -2   -3    3    7    0.003270   -0.000000
   -3   -2   -3    4    7   -0.001043   -0.000000
   -3   -2   -3    5    7   -0.000108    0.000000
   -3   -2   -3    6    7   -0.000638   -0.000000
   -3   -2   -3    7    7   -0.001945    0.000000
   -3   -2   -3    8    7    0.001445   -0.000000
   -3   -2   -3    9    7   -0.000016    0.000000
   -3   -2   -3    1    8    0.000403   -0.000000
   -3   -2   -3    2    8   -0.002195    0.000000
   -3   -2   -3    3    8   -0.002276   -0.000000
   -3   -2   -3    4    8    0.000118    0.000000
   -3   -2   -3    5    8   -0.000499    0.000000
   -3   -2   -3    6    8   -0.000165   -0.000000
   -3   -2   -3    7    8    0.001445   -0.000000
   -3   -2   -3    8    8   -0.001646    0.000000
   -3   -2   -3    9    8   -0.000201   -0.000000
   -3   -2   -3    1    9   -0.000894    0.000000
   -3   -2   -3    2    9    0.001513   -0.000000
   -3   -2   -3    3    9    0.000955    0.000000
   -3   -2   -3    4    9    0.000405   -0.000000
   -3   -2   -3    5    9   -0.000354    0.000000
   -3   -2   -3    6    9   -0.000278    0.000000
   -3   -2   -3    7    9   -0.000016    0.000000
   -3   -2   -3    8    9   -0.000201   -0.000000
   -3   -2   -3    9    9   -0.000109    0.000000
   -3   -2   -2    1    1    0.007479    0.000000
   -3   -2   -2    2    1   -0.006107    0.000000
   -3   -2   -2    3    1   -0.001835    0.000000
   -3   -2   -2    4    1   -0.003592    0.000000
   -3   -2   -2    5    1    0.002057    0.000000
   -3   -2   -2    6    1    0.004149   -0.000000
   -3   -2   -2    7    1    0.003572    0.000000
   -3   -2   -2    8    1    0.000564   -0.000000
   -3   -2   -2    9    1    0.002385    0.000000
   -3   -2   -2    1    2    0.006107   -0.000000
   -3   -2   -2    2    2   -0.008126    0.000000
   -3   -2   -2    3    2   -0.003102    0.000000
   -3   -2   -2    4    2   -0.003345    0.000000
   -3   -2   -2    5    2   -0.000229    0.000000
   -3   -2   -2    6    2    0.005029   -0.000000
   -3   -2   -2    7    2    0.000941    0.000000
   -3   -2   -2    8    2    0.001442   -0.000000
   -3   -2   -2    9    2    0.000429   -0.000000
   -3   -2   -2    1    3    0.001835   -0.000000
   -3   -2   -2    2    3   -0.003102    0.000000
   -3   -2   -2    3    3   -0.002456    0.000000
   -3   -2   -2    4    3   -0.001752    0.000000
   -3   -2   -2    5    3    0.002015   -0.000000
   -3   -2   -2    6    3    0.004807   -0.000000
   -3   -2   -2    7    3    0.001512   -0.000000
   -3   -2   -2    8    3   -0.001707   -0.000000
   -3   -2   -2    9    3    0.002699    0.000000
   -3   -2   -2    1    4    0.003592    0.000000
   -3   -2   -2    2    4   -0.003345    0.000000
   -3   -2   -2    3    4   -0.001752    0.000000
   -3   -2   -2    4    4   -0.004329   -0.000000
   -3   -2   -2    5    4   -0.000002    0.000000
   -3   -2   -2    6    4    0.000404    0.000000
   -3   -2   -2    7    4    0.000495    0.000000
   -3   -2   -2    8    4    0.000843   -0.000000
   -3   -2   -2    9    4    0.004486   -0.000000
   -3   -2   -2    1    5    0.002057    0.000000
   -3   -2   -2    2    5    0.000229   -0.000000
   -3   -2   -2    3    5   -0.002015    0.000000
   -3   -2   -2    4    5    0.000002   -0.000000
   -3   -2   -2    5    5    0.000908    0.000000
   -3   -2   -2    6    5    0.002929    0.000000
   -3   -2   -2    7    5    0.000448    0.000000
   -3   -2   -2    8    5    0.001902   -0.000000
   -3   -2   -2    9    5   -0.000382   -0.000000
   -3   -2   -2    1    6    0.004149   -0.000000
   -3   -2   -2    2    6   -0.005029    0.000000
   -3   -2   -2    3    6   -0.004807    0.000000
   -3   -2   -2    4    6   -0.000404    0.000000
   -3   -2   -2    5    6    0.002929    0.000000
   -3   -2   -2    6    6    0.000793   -0.000000
   -3   -2   -2    7    6    0.001840   -0.000000
   -3   -2   -2    8    6   -0.000049    0.000000
   -3   -2   -2    9    6    0.000593    0.000000
   -3   -2   -2    1    7    0.003572   -0.000000
   -3   -2   -2    2    7   -0.000941   -0.000000
   -3   -2   -2    3    7   -0.001512    0.000000
   -3   -2   -2    4    7   -0.000495   -0.000000
   -3   -2   -2    5    7    0.000448    0.000000
   -3   -2   -2    6    7    0.001840   -0.000000
   -3   -2   -2    7    7    0.001882    0.000000
   -3   -2   -2    8    7   -0.000556   -0.000000
   -3   -2   -2    9    7    0.002453    0.000000
   -3   -2   -2    1    8    0.000564    0.000000
   -3   -2   -2    2    8   -0.001442    0.000000
   -3   -2   -2    3    8    0.001707   -0.000000
   -3   -2   -2    4    8   -0.000843    0.000000
   -3   -2   -2    5    8    0.001902   -0.000000
   -3   -2   -2    6    8   -0.000049   -0.000000
   -3   -2   -2    7    8   -0.000556   -0.000000
   -3   -2   -2    8    8   -0.002190   -0.000000
   -3   -2   -2    9    8   -0.001257   -0.000000
   -3   -2   -2    1    9    0.002385    0.000000
   -3   -2   -2    2    9   -0.000429    0.000000
   -3   -2   -2    3    9   -0.002699   -0.000000
   -3   -2   -2    4    9   -0.004486   -0.000000
   -3   -2   -2    5    9   -0.000382   -0.000000
   -3   -2   -2    6    9    0.000593    0.000000
   -3   -2   -2    7    9    0.002453    0.000000
   -3   -2   -2    8    9   -0.001257    0.000000
   -3   -2   -2    9    9    0.000059   -0.000000
   -3   -2   -1    1    1    0.000944    0.000000
   -3   -2   -1    2    1    0.001049   -0.000000
   -3   -2   -1    3    1    0.005568   -0.000000
   -3   -2   -1    4    1    0.006727    0.000000
   -3   -2   -1    5    1   -0.001936    0.000000
   -3   -2   -1    6    1    0.002739    0.000000
   -3   -2   -1    7    1   -0.000487   -0.000000
   -3   -2   -1    8    1   -0.000051   -0.000000
   -3   -2   -1    9    1    0.003441    0.000000
   -3   -2   -1    1    2   -0.001049    0.000000
   -3   -2   -1    2    2    0.003442   -0.000000
   -3   -2   -1    3    2    0.003875   -0.000000
   -3   -2   -1    4    2    0.005159    0.000000
   -3   -2   -1    5    2   -0.001753   -0.000000
   -3   -2   -1    6    2    0.000029    0.000000
   -3   -2   -1    7    2   -0.001427   -0.000000
   -3   -2   -1    8    2   -0.000274    0.000000
   -3   -2   -1    9    2    0.001644   -0.000000
   -3   -2   -1    1    3   -0.005568    0.000000
   -3   -2   -1    2    3    0.003875   -0.000000
   -3   -2   -1    3    3    0.015313   -0.000000
   -3   -2   -1    4    3    0.010257   -0.000000
   -3   -2   -1    5    3   -0.001228    0.000000
   -3   -2   -1    6    3    0.002822    0.000000
   -3   -2   -1    7    3   -0.002016   -0.000000
   -3   -2   -1    8    3   -0.002137   -0.000000
   -3   -2   -1    9    3    0.002641    0.000000
   -3   -2   -1    1    4   -0.006727   -0.000000
   -3   -2   -1    2    4    0.005159    0.000000
   -3   -2   -1    3    4    0.010257    0.000000
   -3   -2   -1    4    4    0.008825    0.000000
   -3   -2   -1    5    4   -0.000704   -0.000000
   -3   -2   -1    6    4    0.002365    0.000000
   -3   -2   -1    7    4   -0.002596   -0.000000
   -3   -2   -1    8    4   -0.000118    0.000000
   -3   -2   -1    9    4    0.000498    0.000000
   -3   -2   -1    1    5   -0.001936   -0.000000
   -3   -2   -1    2    5    0.001753    0.000000
   -3   -2   -1    3    5    0.001228   -0.000000
   -3   -2   -1    4    5    0.000704    0.000000
   -3   -2   -1    5    5    0.002620   -0.000000
   -3   -2   -1    6    5   -0.001398   -0.000000
   -3   -2   -1    7    5    0.000191    0.000000
   -3   -2   -1    8    5   -0.001688    0.000000
   -3   -2   -1    9    5    0.003172    0.000000
   -3   -2   -1    1    6    0.002739   -0.000000
   -3   -2   -1    2    6   -0.000029   -0.000000
   -3   -2   -1    3    6   -0.002822   -0.000000
   -3   -2   -1    4    6   -0.002365    0.000000
   -3   -2   -1    5    6   -0.001398   -0.000000
   -3   -2   -1    6    6    0.001906    0.000000
   -3   -2   -1    7    6    0.000862   -0.000000
   -3   -2   -1    8    6   -0.000011    0.000000
   -3   -2   -1    9    6    0.002525    0.000000
   -3   -2   -1    1    7   -0.000487   -0.000000
   -3   -2   -1    2    7    0.001427   -0.000000
   -3   -2   -1    3    7    0.002016    0.000000
   -3   -2   -1    4    7    0.002596    0.000000
   -3   -2   -1    5    7    0.000191   -0.000000
   -3   -2   -1    6    7    0.000862   -0.000000
   -3   -2   -1    7    7    0.000349   -0.000000
   -3   -2   -1    8    7   -0.000383   -0.000000
   -3   -2   -1    9    7   -0.000618   -0.000000
   -3   -2   -1    1    8   -0.000051    0.000000
   -3   -2   -1    2    8    0.000274   -0.000000
   -3   -2   -1    3    8    0.002137    0.000000
   -3   -2   -1    4    8    0.000118   -0.000000
   -3   -2   -1    5    8   -0.001688    0.000000
   -3   -2   -1    6    8   -0.000011    0.000000
   -3   -2   -1    7    8   -0.000383    0.000000
   -3   -2   -1    8    8    0.000660    0.000000
   -3   -2   -1    9    8    0.001796    0.000000
   -3   -2   -1    1    9    0.003441    0.000000
   -3   -2   -1    2    9   -0.001644    0.000000
   -3   -2   -1    3    9   -0.002641   -0.000000
   -3   -2   -1    4    9   -0.000498    0.000000
   -3   -2   -1    5    9    0.003172   -0.000000
   -3   -2   -1    6    9    0.002525    0.000000
   -3   -2   -1    7    9   -0.000618   -0.000000
   -3   -2   -1    8    9    0.001796    0.000000
   -3   -2   -1    9    9   -0.000396   -0.000000
   -3   -2    0    1    1   -0.001072   -0.000000
   -3   -2    0    2    1    0.000000    0.000000
   -3   -2    0    3    1    0.002865   -0.000000
   -3   -2    0    4    1    0.001413    0.000000
   -3   -2    0    5    1    0.000362    0.000000
   -3   -2    0    6    1   -0.000000    0.000000
   -3   -2    0    7    1    0.000000    0.000000
   -3   -2    0    8    1   -0.000239   -0.000000
   -3   -2    0    9    1    0.000313   -0.000000
   -3   -2    0    1    2   -0.000000    0.000000
   -3   -2    0    2    2   -0.002686    0.000000
   -3   -2    0    3    2    0.000000    0.000000
   -3   -2    0    4    2   -0.000000    0.000000
   -3   -2    0    5    2   -0.000000    0.000000
   -3   -2    0    6    2   -0.002253    0.000000
   -3   -2    0    7    2   -0.000216   -0.000000
   -3   -2    0    8    2   -0.000000    0.000000
   -3   -2    0    9    2   -0.000000   -0.000000
   -3   -2    0    1    3   -0.002865   -0.000000
   -3   -2    0    2    3    0.000000   -0.000000
   -3   -2    0    3    3    0.005670    0.000000
   -3   -2    0    4    3    0.001067   -0.000000
   -3   -2    0    5    3    0.000250    0.000000
   -3   -2    0    6    3   -0.000000    0.000000
   -3   -2    0    7    3    0.000000    0.000000
   -3   -2    0    8    3    0.001543    0.000000
   -3   -2    0    9    3   -0.002977    0.000000
   -3   -2    0    1    4   -0.001413    0.000000
   -3   -2    0    2    4   -0.000000    0.000000
   -3   -2    0    3    4    0.001067    0.000000
   -3   -2    0    4    4    0.005861   -0.000000
   -3   -2    0    5    4   -0.000185    0.000000
   -3   -2    0    6    4   -0.000000    0.000000
   -3   -2    0    7    4    0.000000   -0.000000
   -3   -2    0    8    4    0.001704   -0.000000
   -3   -2    0    9    4   -0.003524    0.000000
   -3   -2    0    1    5    0.000362    0.000000
   -3   -2    0    2    5    0.000000    0.000000
   -3   -2    0    3    5   -0.000250   -0.000000
   -3   -2    0    4    5    0.000185    0.000000
   -3   -2    0    5    5   -0.001263   -0.000000
   -3   -2    0    6    5    0.000000    0.000000
   -3   -2    0    7    5   -0.000000   -0.000000
   -3   -2    0    8    5   -0.001194    0.000000
   -3   -2    0    9    5   -0.000496   -0.000000
   -3   -2    0    1    6   -0.000000    0.000000
   -3   -2    0    2    6    0.002253   -0.000000
   -3   -2    0    3    6    0.000000    0.000000
   -3   -2    0    4    6    0.000000   -0.000000
   -3   -2    0    5    6    0.000000    0.000000
   -3   -2    0    6    6   -0.000420    0.000000
   -3   -2    0    7    6   -0.000821    0.000000
   -3   -2    0    8    6   -0.000000    0.000000
   -3   -2    0    9    6    0.000000   -0.000000
   -3   -2    0    1    7    0.000000    0.000000
   -3   -2    0    2    7    0.000216   -0.000000
   -3   -2    0    3    7   -0.000000   -0.000000
   -3   -2    0    4    7   -0.000000    0.000000
   -3   -2    0    5    7   -0.000000    0.000000
   -3   -2    0    6    7   -0.000821    0.000000
   -3   -2    0    7    7   -0.000247    0.000000
   -3   -2    0    8    7   -0.000000   -0.000000
   -3   -2    0    9    7    0.000000   -0.000000
   -3   -2    0    1    8   -0.000239   -0.000000
   -3   -2    0    2    8    0.000000   -0.000000
   -3   -2    0    3    8   -0.001543   -0.000000
   -3   -2    0    4    8   -0.001704    0.000000
   -3   -2    0    5    8   -0.001194   -0.000000
   -3   -2    0    6    8   -0.000000    0.000000
   -3   -2    0    7    8   -0.000000    0.000000
   -3   -2    0    8    8    0.002169    0.000000
   -3   -2    0    9    8    0.000041    0.000000
   -3   -2    0    1    9    0.000313    0.000000
   -3   -2    0    2    9    0.000000   -0.000000
   -3   -2    0    3    9    0.002977    0.000000
   -3   -2    0    4    9    0.003524    0.000000
   -3   -2    0    5    9   -0.000496    0.000000
   -3   -2    0    6    9    0.000000    0.000000
   -3   -2    0    7    9    0.000000   -0.000000
   -3   -2    0    8    9    0.000041   -0.000000
   -3   -2    0    9    9    0.001986    0.000000
   -3   -1   -4    1    1   -0.002669    0.000000
   -3   -1   -4    2    1    0.000299    0.000000
   -3   -1   -4    3    1   -0.000315    0.000000
   -3   -1   -4    4    1    0.000273   -0.000000
   -3   -1   -4    5    1   -0.000427   -0.000000
   -3   -1   -4    6    1   -0.001494    0.000000
   -3   -1   -4    7    1    0.001088    0.000000
   -3   -1   -4    8    1   -0.000234   -0.000000
   -3   -1   -4    9    1    0.000666    0.000000
   -3   -1   -4    1    2   -0.000299   -0.000000
   -3   -1   -4    2    2    0.000277    0.000000
   -3   -1   -4    3    2    0.000631    0.000000
   -3   -1   -4    4    2   -0.000487   -0.000000
   -3   -1   -4    5    2    0.002047    0.000000
   -3   -1   -4    6    2   -0.000825    0.000000
   -3   -1   -4    7    2    0.000578   -0.000000
   -3   -1   -4    8    2   -0.000115    0.000000
   -3   -1   -4    9    2    0.000297   -0.000000
   -3   -1   -4    1    3    0.000315    0.000000
   -3   -1   -4    2    3    0.000631    0.000000
   -3   -1   -4    3    3   -0.002283    0.000000
   -3   -1   -4    4    3   -0.003769   -0.000000
   -3   -1   -4    5    3    0.001099    0.000000
   -3   -1   -4    6    3    0.001022   -0.000000
   -3   -1   -4    7    3   -0.000113    0.000000
   -3   -1   -4    8    3   -0.000881    0.000000
   -3   -1   -4    9    3    0.001067    0.000000
   -3   -1   -4    1    4   -0.000273    0.000000
   -3   -1   -4    2    4   -0.000487   -0.000000
   -3   -1   -4    3    4   -0.003769   -0.000000
   -3   -1   -4    4    4   -0.005141    0.000000
   -3   -1   -4    5    4   -0.000783   -0.000000
   -3   -1   -4    6    4   -0.000123    0.000000
   -3   -1   -4    7    4    0.000954    0.000000
   -3   -1   -4    8    4   -0.000341   -0.000000
   -3   -1   -4    9    4   -0.001100   -0.000000
   -3   -1   -4    1    5   -0.000427   -0.000000
   -3   -1   -4    2    5   -0.002047   -0.000000
   -3   -1   -4    3    5   -0.001099   -0.000000
   -3   -1   -4    4    5    0.000783    0.000000
   -3   -1   -4    5    5    0.000394   -0.000000
   -3   -1   -4    6    5    0.000282    0.000000
   -3   -1   -4    7    5   -0.000206    0.000000
   -3   -1   -4    8    5    0.000037    0.000000
   -3   -1   -4    9    5   -0.000096   -0.000000
   -3   -1   -4    1    6   -0.001494    0.000000
   -3   -1   -4    2    6    0.000825    0.000000
   -3   -1   -4    3    6   -0.001022   -0.000000
   -3   -1   -4    4    6    0.000123   -0.000000
   -3   -1   -4    5    6    0.000282    0.000000
   -3   -1   -4    6    6    0.000795    0.000000
   -3   -1   -4    7    6   -0.001203   -0.000000
   -3   -1   -4    8    6    0.000595   -0.000000
   -3   -1   -4    9    6   -0.000315   -0.000000
   -3   -1   -4    1    7    0.001088   -0.000000
   -3   -1   -4    2    7   -0.000578   -0.000000
   -3   -1   -4    3    7    0.000113    0.000000
   -3   -1   -4    4    7   -0.000954   -0.000000
   -3   -1   -4    5    7   -0.000206    0.000000
   -3   -1   -4    6    7   -0.001203    0.000000
   -3   -1   -4    7    7   -0.000055    0.000000
   -3   -1   -4    8    7    0.000487   -0.000000
   -3   -1   -4    9    7    0.000544    0.000000
   -3   -1   -4    1    8   -0.000234   -0.000000
   -3   -1   -4    2    8    0.000115   -0.000000
   -3   -1   -4    3    8    0.000881    0.000000
   -3   -1   -4    4    8    0.000341    0.000000
   -3   -1   -4    5    8    0.000037    0.000000
   -3   -1   -4    6    8    0.000595   -0.000000
   -3   -1   -4    7    8    0.000487   -0.000000
   -3   -1   -4    8    8   -0.000744    0.000000
   -3   -1   -4    9    8   -0.000449   -0.000000
   -3   -1   -4    1    9    0.000666   -0.000000
   -3   -1   -4    2    9   -0.000297   -0.000000
   -3   -1   -4    3    9   -0.001067   -0.000000
   -3   -1   -4    4    9    0.001100    0.000000
   -3   -1   -4    5    9   -0.000096   -0.000000
   -3   -1   -4    6    9   -0.000315   -0.000000
   -3   -1   -4    7    9    0.000544   -0.000000
   -3   -1   -4    8    9   -0.000449   -0.000000
   -3   -1   -4    9    9    0.000342   -0.000000
   -3   -1   -3    1    1   -0.001195    0.000000
   -3   -1   -3    2    1    0.002781    0.000000
   -3   -1   -3    3    1    0.001719   -0.000000
   -3   -1   -3    4    1    0.000162    0.000000
   -3   -1   -3    5    1   -0.000060   -0.000000
   -3   -1   -3    6    1   -0.000140   -0.000000
   -3   -1   -3    7    1   -0.000431   -0.000000
   -3   -1   -3    8    1    0.000229   -0.000000
   -3   -1   -3    9    1   -0.000022    0.000000
   -3   -1   -3    1    2   -0.002781   -0.000000
   -3   -1   -3    2    2    0.004215    0.000000
   -3   -1   -3    3    2    0.003864   -0.000000
   -3   -1   -3    4    2    0.000671   -0.000000
   -3   -1   -3    5    2   -0.001410   -0.000000
   -3   -1   -3    6    2   -0.000963   -0.000000
   -3   -1   -3    7    2    0.003015   -0.000000
   -3   -1   -3    8    2   -0.001302    0.000000
   -3   -1   -3    9    2    0.001728   -0.000000
   -3   -1   -3    1    3   -0.001719   -0.000000
   -3   -1   -3    2    3    0.003864   -0.000000
   -3   -1   -3    3    3    0.000619    0.000000
   -3   -1   -3    4    3   -0.002091    0.000000
   -3   -1   -3    5    3    0.000871    0.000000
   -3   -1   -3    6    3   -0.002010   -0.000000
   -3   -1   -3    7    3    0.002217   -0.000000
   -3   -1   -3    8    3   -0.001609   -0.000000
   -3   -1   -3    9    3    0.000095   -0.000000
   -3   -1   -3    1    4   -0.000162    0.000000
   -3   -1   -3    2    4    0.000671    0.000000
   -3   -1   -3    3    4   -0.002091    0.000000
   -3   -1   -3    4    4    0.004161   -0.000000
   -3   -1   -3    5    4    0.000665    0.000000
   -3   -1   -3    6    4    0.000117    0.000000
   -3   -1   -3    7    4   -0.001261    0.000000
   -3   -1   -3    8    4    0.000655   -0.000000
   -3   -1   -3    9    4   -0.000609    0.000000
   -3   -1   -3    1    5   -0.000060    0.000000
   -3   -1   -3    2    5    0.001410    0.000000
   -3   -1   -3    3    5   -0.000871   -0.000000
   -3   -1   -3    4    5   -0.000665   -0.000000
   -3   -1   -3    5    5    0.000575   -0.000000
   -3   -1   -3    6    5    0.001302   -0.000000
   -3   -1   -3    7    5    0.000759    0.000000
   -3   -1   -3    8    5    0.000851   -0.000000
   -3   -1   -3    9    5    0.000278   -0.000000
   -3   -1   -3    1    6   -0.000140   -0.000000
   -3   -1   -3    2    6    0.000963    0.000000
   -3   -1   -3    3    6    0.002010    0.000000
   -3   -1   -3    4    6   -0.000117    0.000000
   -3   -1   -3    5    6    0.001302   -0.000000
   -3   -1   -3    6    6    0.000350    0.000000
   -3   -1   -3    7    6   -0.000310    0.000000
   -3   -1   -3    8    6    0.000899   -0.000000
   -3   -1   -3    9    6    0.000892    0.000000
   -3   -1   -3    1    7   -0.000431   -0.000000
   -3   -1   -3    2    7   -0.003015   -0.000000
   -3   -1   -3    3    7   -0.002217    0.000000
   -3   -1   -3    4    7    0.001261    0.000000
   -3   -1   -3    5    7    0.000759    0.000000
   -3   -1   -3    6    7   -0.000310    0.000000
   -3   -1   -3    7    7    0.001482    0.000000
   -3   -1   -3    8    7   -0.000426   -0.000000
   -3   -1   -3    9    7    0.000738   -0.000000
   -3   -1   -3    1    8    0.000229    0.000000
   -3   -1   -3    2    8    0.001302   -0.000000
   -3   -1   -3    3    8    0.001609   -0.000000
   -3   -1   -3    4    8   -0.000655    0.000000
   -3   -1   -3    5    8    0.000851   -0.000000
   -3   -1   -3    6    8    0.000899   -0.000000
   -3   -1   -3    7    8   -0.000426   -0.000000
   -3   -1   -3    8    8   -0.000378   -0.000000
   -3   -1   -3    9    8   -0.000748   -0.000000
   -3   -1   -3    1    9   -0.000022   -0.000000
   -3   -1   -3    2    9   -0.001728    0.000000
   -3   -1   -3    3    9   -0.000095    0.000000
   -3   -1   -3    4    9    0.000609   -0.000000
   -3   -1   -3    5    9    0.000278   -0.000000
   -3   -1   -3    6    9    0.000892    0.000000
   -3   -1   -3    7    9    0.000738    0.000000
   -3   -1   -3    8    9   -0.000748   -0.000000
   -3   -1   -3    9    9    0.000168   -0.000000
   -3   -1   -2    1    1    0.000982    0.000000
   -3   -1   -2    2    1    0.006120   -0.000000
   -3   -1   -2    3    1    0.005627   -0.000000
   -3   -1   -2    4    1   -0.002491   -0.000000
   -3   -1   -2    5    1   -0.000060   -0.000000
   -3   -1   -2    6    1    0.004358    0.000000
   -3   -1   -2    7    1   -0.001759   -0.000000
   -3   -1   -2    8    1    0.001000    0.000000
   -3   -1   -2    9    1    0.000553   -0.000000
   -3   -1   -2    1    2   -0.006120    0.000000
   -3   -1   -2    2    2    0.011844    0.000000
   -3   -1   -2    3    2    0.010826   -0.000000
   -3   -1   -2    4    2    0.000378   -0.000000
   -3   -1   -2    5    2   -0.001859   -0.000000
   -3   -1   -2    6    2    0.002108   -0.000000
   -3   -1   -2    7    2   -0.002629   -0.000000
   -3   -1   -2    8    2   -0.000483    0.000000
   -3   -1   -2    9    2    0.001129   -0.000000
   -3   -1   -2    1    3   -0.005627    0.000000
   -3   -1   -2    2    3    0.010826   -0.000000
   -3   -1   -2    3    3    0.015492   -0.000000
   -3   -1   -2    4    3   -0.001747    0.000000
   -3   -1   -2    5    3   -0.000064   -0.000000
   -3   -1   -2    6    3    0.003650    0.000000
   -3   -1   -2    7    3   -0.002836   -0.000000
   -3   -1   -2    8    3   -0.001441   -0.000000
   -3   -1   -2    9    3    0.001147    0.000000
   -3   -1   -2    1    4    0.002491    0.000000
   -3   -1   -2    2    4    0.000378   -0.000000
   -3   -1   -2    3    4   -0.001747    0.000000
   -3   -1   -2    4    4    0.000229   -0.000000
   -3   -1   -2    5    4    0.000323    0.000000
   -3   -1   -2    6    4    0.000625   -0.000000
   -3   -1   -2    7    4   -0.001002   -0.000000
   -3   -1   -2    8    4    0.000704    0.000000
   -3   -1   -2    9    4   -0.001683    0.000000
   -3   -1   -2    1    5   -0.000060   -0.000000
   -3   -1   -2    2    5    0.001859    0.000000
   -3   -1   -2    3    5    0.000064    0.000000
   -3   -1   -2    4    5   -0.000323   -0.000000
   -3   -1   -2    5    5    0.000587    0.000000
   -3   -1   -2    6    5   -0.001316    0.000000
   -3   -1   -2    7    5    0.000689   -0.000000
   -3   -1   -2    8    5   -0.000706   -0.000000
   -3   -1   -2    9    5    0.001720   -0.000000
   -3   -1   -2    1    6    0.004358    0.000000
   -3   -1   -2    2    6   -0.002108   -0.000000
   -3   -1   -2    3    6   -0.003650   -0.000000
   -3   -1   -2    4    6   -0.000625    0.000000
   -3   -1   -2    5    6   -0.001316   -0.000000
   -3   -1   -2    6    6    0.002342   -0.000000
   -3   -1   -2    7    6    0.002141    0.000000
   -3   -1   -2    8    6   -0.000401    0.000000
   -3   -1   -2    9    6    0.002260    0.000000
   -3   -1   -2    1    7   -0.001759   -0.000000
   -3   -1   -2    2    7    0.002629    0.000000
   -3   -1   -2    3    7    0.002836    0.000000
   -3   -1   -2    4    7    0.001002   -0.000000
   -3   -1   -2    5    7    0.000689   -0.000000
   -3   -1   -2    6    7    0.002141    0.000000
   -3   -1   -2    7    7    0.000556   -0.000000
   -3   -1   -2    8    7   -0.001535    0.000000
   -3   -1   -2    9    7   -0.001980   -0.000000
   -3   -1   -2    1    8    0.001000    0.000000
   -3   -1   -2    2    8    0.000483   -0.000000
   -3   -1   -2    3    8    0.001441    0.000000
   -3   -1   -2    4    8   -0.000704   -0.000000
   -3   -1   -2    5    8   -0.000706   -0.000000
   -3   -1   -2    6    8   -0.000401    0.000000
   -3   -1   -2    7    8   -0.001535    0.000000
   -3   -1   -2    8    8    0.002486    0.000000
   -3   -1   -2    9    8    0.001724    0.000000
   -3   -1   -2    1    9    0.000553    0.000000
   -3   -1   -2    2    9   -0.001129    0.000000
   -3   -1   -2    3    9   -0.001147   -0.000000
   -3   -1   -2    4    9    0.001683   -0.000000
   -3   -1   -2    5    9    0.001720    0.000000
   -3   -1   -2    6    9    0.002260    0.000000
   -3   -1   -2    7    9   -0.001980   -0.000000
   -3   -1   -2    8    9    0.001724    0.000000
   -3   -1   -2    9    9   -0.000855   -0.000000
   -3   -1   -1    1    1    0.008697    0.000000
   -3   -1   -1    2    1   -0.000036   -0.000000
   -3   -1   -1    3    1   -0.008112   -0.000000
   -3   -1   -1    4    1   -0.000110    0.000000
   -3   -1   -1    5    1   -0.002880    0.000000
   -3   -1   -1    6    1    0.002126    0.000000
   -3   -1   -1    7    1    0.000334   -0.000000
   -3   -1   -1    8    1    0.005417    0.000000
   -3   -1   -1    9    1    0.001259   -0.000000
   -3   -1   -1    1    2    0.000036    0.000000
   -3   -1   -1    2    2   -0.001499    0.000000
   -3   -1   -1    3    2   -0.001245   -0.000000
   -3   -1   -1    4    2    0.000521   -0.000000
   -3   -1   -1    5    2   -0.001245   -0.000000
   -3   -1   -1    6    2    0.000917    0.000000
   -3   -1   -1    7    2   -0.003002   -0.000000
   -3   -1   -1    8    2    0.003452    0.000000
   -3   -1   -1    9    2   -0.000251    0.000000
   -3   -1   -1    1    3    0.008112    0.000000
   -3   -1   -1    2    3   -0.001245    0.000000
   -3   -1   -1    3    3   -0.012299   -0.000000
   -3   -1   -1    4    3   -0.000913   -0.000000
   -3   -1   -1    5    3   -0.002516    0.000000
   -3   -1   -1    6    3    0.004555   -0.000000
   -3   -1   -1    7    3   -0.000513    0.000000
   -3   -1   -1    8    3    0.003842    0.000000
   -3   -1   -1    9    3    0.002624    0.000000
   -3   -1   -1    1    4    0.000110   -0.000000
   -3   -1   -1    2    4    0.000521    0.000000
   -3   -1   -1    3    4   -0.000913    0.000000
   -3   -1   -1    4    4   -0.002179    0.000000
   -3   -1   -1    5    4   -0.004275   -0.000000
   -3   -1   -1    6    4   -0.000258    0.000000
   -3   -1   -1    7    4    0.000584   -0.000000
   -3   -1   -1    8    4    0.000052   -0.000000
   -3   -1   -1    9    4    0.001134    0.000000
   -3   -1   -1    1    5   -0.002880    0.000000
   -3   -1   -1    2    5    0.001245    0.000000
   -3   -1   -1    3    5    0.002516   -0.000000
   -3   -1   -1    4    5    0.004275    0.000000
   -3   -1   -1    5    5   -0.000297   -0.000000
   -3   -1   -1    6    5   -0.000555   -0.000000
   -3   -1   -1    7    5   -0.000368    0.000000
   -3   -1   -1    8    5   -0.002683    0.000000
   -3   -1   -1    9    5   -0.001378    0.000000
   -3   -1   -1    1    6    0.002126    0.000000
   -3   -1   -1    2    6   -0.000917    0.000000
   -3   -1   -1    3    6   -0.004555    0.000000
   -3   -1   -1    4    6    0.000258   -0.000000
   -3   -1   -1    5    6   -0.000555   -0.000000
   -3   -1   -1    6    6   -0.001346    0.000000
   -3   -1   -1    7    6   -0.001026    0.000000
   -3   -1   -1    8    6    0.001214   -0.000000
   -3   -1   -1    9    6   -0.002560   -0.000000
   -3   -1   -1    1    7    0.000334    0.000000
   -3   -1   -1    2    7    0.003002    0.000000
   -3   -1   -1    3    7    0.000513   -0.000000
   -3   -1   -1    4    7   -0.000584   -0.000000
   -3   -1   -1    5    7   -0.000368    0.000000
   -3   -1   -1    6    7   -0.001026    0.000000
   -3   -1   -1    7    7   -0.001953   -0.000000
   -3   -1   -1    8    7    0.000213    0.000000
   -3   -1   -1    9    7    0.000112   -0.000000
   -3   -1   -1    1    8    0.005417   -0.000000
   -3   -1   -1    2    8   -0.003452    0.000000
   -3   -1   -1    3    8   -0.003842   -0.000000
   -3   -1   -1    4    8   -0.000052   -0.000000
   -3   -1   -1    5    8   -0.002683    0.000000
   -3   -1   -1    6    8    0.001214   -0.000000
   -3   -1   -1    7    8    0.000213    0.000000
   -3   -1   -1    8    8    0.003344    0.000000
   -3   -1   -1    9    8    0.000084    0.000000
   -3   -1   -1    1    9    0.001259   -0.000000
   -3   -1   -1    2    9    0.000251    0.000000
   -3   -1   -1    3    9   -0.002624    0.000000
   -3   -1   -1    4    9   -0.001134   -0.000000
   -3   -1   -1    5    9   -0.001378    0.000000
   -3   -1   -1    6    9   -0.002560   -0.000000
   -3   -1   -1    7    9    0.000112   -0.000000
   -3   -1   -1    8    9    0.000084   -0.000000
   -3   -1   -1    9    9    0.001551    0.000000
   -3   -1    0    1    1    0.000667    0.000000
   -3   -1    0    2    1    0.000000   -0.000000
   -3   -1    0    3    1   -0.000193    0.000000
   -3   -1    0    4    1   -0.000306    0.000000
   -3   -1    0    5    1    0.001186   -0.000000
   -3   -1    0    6    1    0.000000    0.000000
   -3   -1    0    7    1    0.000000   -0.000000
   -3   -1    0    8    1   -0.002438    0.000000
   -3   -1    0    9    1    0.000390   -0.000000
   -3   -1    0    1    2   -0.000000    0.000000
   -3   -1    0    2    2    0.004038    0.000000
   -3   -1    0    3    2    0.000000    0.000000
   -3   -1    0    4    2   -0.000000   -0.000000
   -3   -1    0    5    2    0.000000    0.000000
   -3   -1    0    6    2    0.000799   -0.000000
   -3   -1    0    7    2    0.000883   -0.000000
   -3   -1    0    8    2   -0.000000    0.000000
   -3   -1    0    9    2    0.000000    0.000000
   -3   -1    0    1    3    0.000193   -0.000000
   -3   -1    0    2    3    0.000000    0.000000
   -3   -1    0    3    3    0.001436    0.000000
   -3   -1    0    4    3   -0.006882    0.000000
   -3   -1    0    5    3    0.001110    0.000000
   -3   -1    0    6    3    0.000000    0.000000
   -3   -1    0    7    3   -0.000000   -0.000000
   -3   -1    0    8    3   -0.003487   -0.000000
   -3   -1    0    9    3    0.004612   -0.000000
   -3   -1    0    1    4    0.000306   -0.000000
   -3   -1    0    2    4   -0.000000    0.000000
   -3   -1    0    3    4   -0.006882    0.000000
   -3   -1    0    4    4   -0.003982   -0.000000
   -3   -1    0    5    4    0.004067    0.000000
   -3   -1    0    6    4    0.000000   -0.000000
   -3   -1    0    7    4    0.000000   -0.000000
   -3   -1    0    8    4   -0.004109   -0.000000
   -3   -1    0    9    4    0.000957   -0.000000
[...]
    4    1    2    7    1   -0.000000    0.000000
    4    1    2    8    1   -0.001424    0.000000
    4    1    2    9    1   -0.000080    0.000000
    4    1    2    1    2    0.001317   -0.000000
    4    1    2    2    2    0.002243    0.000000
    4    1    2    3    2   -0.000000    0.000000
    4    1    2    4    2    0.000000    0.000000
    4    1    2    5    2    0.000040   -0.000000
    4    1    2    6    2    0.000000   -0.000000
    4    1    2    7    2    0.000000    0.000000
    4    1    2    8    2    0.001469   -0.000000
    4    1    2    9    2   -0.001519   -0.000000
    4    1    2    1    3    0.000000   -0.000000
    4    1    2    2    3   -0.000000    0.000000
    4    1    2    3    3   -0.003959   -0.000000
    4    1    2    4    3    0.000407   -0.000000
    4    1    2    5    3    0.000000   -0.000000
    4    1    2    6    3   -0.000738    0.000000
    4    1    2    7    3   -0.001070   -0.000000
    4    1    2    8    3   -0.000000    0.000000
    4    1    2    9    3    0.000000    0.000000
    4    1    2    1    4    0.000000   -0.000000
    4    1    2    2    4    0.000000   -0.000000
    4    1    2    3    4    0.000407   -0.000000
    4    1    2    4    4    0.000763   -0.000000
    4    1    2    5    4    0.000000    0.000000
    4    1    2    6    4   -0.001082   -0.000000
    4    1    2    7    4    0.000817   -0.000000
    4    1    2    8    4    0.000000   -0.000000
    4    1    2    9    4    0.000000    0.000000
    4    1    2    1    5    0.000849   -0.000000
    4    1    2    2    5   -0.000040   -0.000000
    4    1    2    3    5   -0.000000   -0.000000
    4    1    2    4    5   -0.000000    0.000000
    4    1    2    5    5   -0.000111   -0.000000
    4    1    2    6    5    0.000000   -0.000000
    4    1    2    7    5    0.000000   -0.000000
    4    1    2    8    5    0.000673    0.000000
    4    1    2    9    5    0.000494   -0.000000
    4    1    2    1    6   -0.000000    0.000000
    4    1    2    2    6   -0.000000    0.000000
    4    1    2    3    6    0.000738   -0.000000
    4    1    2    4    6    0.001082    0.000000
    4    1    2    5    6    0.000000    0.000000
    4    1    2    6    6    0.000378   -0.000000
    4    1    2    7    6    0.000794   -0.000000
    4    1    2    8    6   -0.000000   -0.000000
    4    1    2    9    6    0.000000   -0.000000
    4    1    2    1    7   -0.000000   -0.000000
    4    1    2    2    7   -0.000000   -0.000000
    4    1    2    3    7    0.001070    0.000000
    4    1    2    4    7   -0.000817    0.000000
    4    1    2    5    7    0.000000    0.000000
    4    1    2    6    7    0.000794    0.000000
    4    1    2    7    7    0.001163   -0.000000
    4    1    2    8    7   -0.000000   -0.000000
    4    1    2    9    7   -0.000000    0.000000
    4    1    2    1    8   -0.001424    0.000000
    4    1    2    2    8   -0.001469    0.000000
    4    1    2    3    8    0.000000   -0.000000
    4    1    2    4    8   -0.000000    0.000000
    4    1    2    5    8    0.000673    0.000000
    4    1    2    6    8   -0.000000   -0.000000
    4    1    2    7    8   -0.000000    0.000000
    4    1    2    8    8   -0.001181    0.000000
    4    1    2    9    8   -0.000260    0.000000
    4    1    2    1    9   -0.000080    0.000000
    4    1    2    2    9    0.001519    0.000000
    4    1    2    3    9   -0.000000   -0.000000
    4    1    2    4    9   -0.000000    0.000000
    4    1    2    5    9    0.000494    0.000000
    4    1    2    6    9    0.000000   -0.000000
    4    1    2    7    9   -0.000000    0.000000
    4    1    2    8    9   -0.000260    0.000000
    4    1    2    9    9   -0.000856    0.000000
    4    1    3    1    1   -0.002680    0.000000
    4    1    3    2    1    0.000025    0.000000
    4    1    3    3    1   -0.000241    0.000000
    4    1    3    4    1   -0.000442    0.000000
    4    1    3    5    1   -0.000613   -0.000000
    4    1    3    6    1   -0.001335    0.000000
    4    1    3    7    1    0.000957   -0.000000
    4    1    3    8    1   -0.000350    0.000000
    4    1    3    9    1    0.001011    0.000000
    4    1    3    1    2   -0.000025   -0.000000
    4    1    3    2    2   -0.003341    0.000000
    4    1    3    3    2    0.003670   -0.000000
    4    1    3    4    2   -0.002545   -0.000000
    4    1    3    5    2    0.000009   -0.000000
    4    1    3    6    2   -0.001164   -0.000000
    4    1    3    7    2   -0.001643   -0.000000
    4    1    3    8    2   -0.000729    0.000000
    4    1    3    9    2   -0.000248   -0.000000
    4    1    3    1    3    0.000241   -0.000000
    4    1    3    2    3    0.003670   -0.000000
    4    1    3    3    3   -0.002383   -0.000000
    4    1    3    4    3    0.001285    0.000000
    4    1    3    5    3    0.000535    0.000000
    4    1    3    6    3   -0.000422   -0.000000
    4    1    3    7    3   -0.000493   -0.000000
    4    1    3    8    3   -0.001218   -0.000000
    4    1    3    9    3   -0.001411   -0.000000
    4    1    3    1    4    0.000442   -0.000000
    4    1    3    2    4   -0.002545   -0.000000
    4    1    3    3    4    0.001285   -0.000000
    4    1    3    4    4   -0.001403   -0.000000
    4    1    3    5    4    0.000744    0.000000
    4    1    3    6    4    0.000196    0.000000
    4    1    3    7    4    0.000405   -0.000000
    4    1    3    8    4    0.001472   -0.000000
    4    1    3    9    4   -0.000858    0.000000
    4    1    3    1    5   -0.000613   -0.000000
    4    1    3    2    5   -0.000009   -0.000000
    4    1    3    3    5   -0.000535   -0.000000
    4    1    3    4    5   -0.000744   -0.000000
    4    1    3    5    5    0.000097   -0.000000
    4    1    3    6    5    0.000321   -0.000000
    4    1    3    7    5   -0.000229   -0.000000
    4    1    3    8    5    0.000126   -0.000000
    4    1    3    9    5   -0.000354   -0.000000
    4    1    3    1    6   -0.001335    0.000000
    4    1    3    2    6    0.001164    0.000000
    4    1    3    3    6    0.000422    0.000000
    4    1    3    4    6   -0.000196   -0.000000
    4    1    3    5    6    0.000321    0.000000
    4    1    3    6    6    0.000743   -0.000000
    4    1    3    7    6   -0.001004    0.000000
    4    1    3    8    6    0.000745   -0.000000
    4    1    3    9    6   -0.000346    0.000000
    4    1    3    1    7    0.000957   -0.000000
    4    1    3    2    7    0.001643   -0.000000
    4    1    3    3    7    0.000493    0.000000
    4    1    3    4    7   -0.000405    0.000000
    4    1    3    5    7   -0.000229   -0.000000
    4    1    3    6    7   -0.001004    0.000000
    4    1    3    7    7    0.000031    0.000000
    4    1    3    8    7    0.000644    0.000000
    4    1    3    9    7    0.000656    0.000000
    4    1    3    1    8   -0.000350    0.000000
    4    1    3    2    8    0.000729   -0.000000
    4    1    3    3    8    0.001218    0.000000
    4    1    3    4    8   -0.001472    0.000000
    4    1    3    5    8    0.000126    0.000000
    4    1    3    6    8    0.000745   -0.000000
    4    1    3    7    8    0.000644    0.000000
    4    1    3    8    8   -0.000546   -0.000000
    4    1    3    9    8   -0.000386    0.000000
    4    1    3    1    9    0.001011   -0.000000
    4    1    3    2    9    0.000248    0.000000
    4    1    3    3    9    0.001411   -0.000000
    4    1    3    4    9    0.000858   -0.000000
    4    1    3    5    9   -0.000354   -0.000000
    4    1    3    6    9   -0.000346   -0.000000
    4    1    3    7    9    0.000656    0.000000
    4    1    3    8    9   -0.000386   -0.000000
    4    1    3    9    9    0.000399   -0.000000
    4    2    1    1    1   -0.001170    0.000000
    4    2    1    2    1   -0.000689    0.000000
    4    2    1    3    1   -0.000033   -0.000000
    4    2    1    4    1   -0.001266   -0.000000
    4    2    1    5    1    0.000796    0.000000
    4    2    1    6    1   -0.000084   -0.000000
    4    2    1    7    1    0.000017   -0.000000
    4    2    1    8    1   -0.001430    0.000000
    4    2    1    9    1    0.000034    0.000000
    4    2    1    1    2    0.000689   -0.000000
    4    2    1    2    2    0.001175    0.000000
    4    2    1    3    2    0.000383    0.000000
    4    2    1    4    2    0.000639   -0.000000
    4    2    1    5    2    0.000018    0.000000
    4    2    1    6    2   -0.001121   -0.000000
    4    2    1    7    2    0.000714   -0.000000
    4    2    1    8    2    0.000755   -0.000000
    4    2    1    9    2   -0.000442    0.000000
    4    2    1    1    3    0.000033    0.000000
    4    2    1    2    3    0.000383   -0.000000
    4    2    1    3    3   -0.003929   -0.000000
    4    2    1    4    3   -0.000298    0.000000
    4    2    1    5    3   -0.000798   -0.000000
    4    2    1    6    3   -0.000348   -0.000000
    4    2    1    7    3   -0.000537    0.000000
    4    2    1    8    3   -0.000462    0.000000
    4    2    1    9    3   -0.000650   -0.000000
    4    2    1    1    4    0.001266   -0.000000
    4    2    1    2    4    0.000639   -0.000000
    4    2    1    3    4   -0.000298   -0.000000
    4    2    1    4    4    0.001842   -0.000000
    4    2    1    5    4   -0.001111    0.000000
    4    2    1    6    4   -0.000879   -0.000000
    4    2    1    7    4    0.000398   -0.000000
    4    2    1    8    4    0.000592    0.000000
    4    2    1    9    4    0.001108    0.000000
    4    2    1    1    5    0.000796   -0.000000
    4    2    1    2    5   -0.000018   -0.000000
    4    2    1    3    5    0.000798    0.000000
    4    2    1    4    5    0.001111    0.000000
    4    2    1    5    5    0.000272   -0.000000
    4    2    1    6    5    0.000392   -0.000000
    4    2    1    7    5    0.000412    0.000000
    4    2    1    8    5    0.001078   -0.000000
    4    2    1    9    5    0.000454   -0.000000
    4    2    1    1    6   -0.000084    0.000000
    4    2    1    2    6    0.001121    0.000000
    4    2    1    3    6    0.000348    0.000000
    4    2    1    4    6    0.000879    0.000000
    4    2    1    5    6    0.000392    0.000000
    4    2    1    6    6   -0.000553    0.000000
    4    2    1    7    6    0.000422    0.000000
    4    2    1    8    6   -0.000246    0.000000
    4    2    1    9    6    0.000532   -0.000000
    4    2    1    1    7    0.000017   -0.000000
    4    2    1    2    7   -0.000714   -0.000000
    4    2    1    3    7    0.000537    0.000000
    4    2    1    4    7   -0.000398   -0.000000
    4    2    1    5    7    0.000412    0.000000
    4    2    1    6    7    0.000422    0.000000
    4    2    1    7    7    0.000445   -0.000000
    4    2    1    8    7    0.000123    0.000000
    4    2    1    9    7    0.000216    0.000000
    4    2    1    1    8   -0.001430   -0.000000
    4    2    1    2    8   -0.000755    0.000000
    4    2    1    3    8    0.000462    0.000000
    4    2    1    4    8   -0.000592   -0.000000
    4    2    1    5    8    0.001078    0.000000
    4    2    1    6    8   -0.000246   -0.000000
    4    2    1    7    8    0.000123    0.000000
    4    2    1    8    8   -0.000850    0.000000
    4    2    1    9    8    0.000539    0.000000
    4    2    1    1    9    0.000034    0.000000
    4    2    1    2    9    0.000442   -0.000000
    4    2    1    3    9    0.000650   -0.000000
    4    2    1    4    9   -0.001108    0.000000
    4    2    1    5    9    0.000454    0.000000
    4    2    1    6    9    0.000532   -0.000000
    4    2    1    7    9    0.000216   -0.000000
    4    2    1    8    9    0.000539    0.000000
    4    2    1    9    9    0.000067    0.000000
    4    2    2    1    1   -0.000804    0.000000
    4    2    2    2    1    0.000702    0.000000
    4    2    2    3    1    0.001178    0.000000
    4    2    2    4    1    0.000369   -0.000000
    4    2    2    5    1   -0.000186    0.000000
    4    2    2    6    1    0.000350   -0.000000
    4    2    2    7    1   -0.000498   -0.000000
    4    2    2    8    1   -0.000211    0.000000
    4    2    2    9    1    0.000196    0.000000
    4    2    2    1    2   -0.000702   -0.000000
    4    2    2    2    2   -0.002977   -0.000000
    4    2    2    3    2   -0.004332   -0.000000
    4    2    2    4    2   -0.002159   -0.000000
    4    2    2    5    2   -0.001346   -0.000000
    4    2    2    6    2    0.000078   -0.000000
    4    2    2    7    2   -0.001769    0.000000
    4    2    2    8    2    0.000615   -0.000000
    4    2    2    9    2   -0.000199    0.000000
    4    2    2    1    3   -0.001178   -0.000000
    4    2    2    2    3   -0.004332    0.000000
    4    2    2    3    3   -0.007928   -0.000000
    4    2    2    4    3   -0.002580   -0.000000
    4    2    2    5    3    0.000560   -0.000000
    4    2    2    6    3    0.001237   -0.000000
    4    2    2    7    3   -0.000793    0.000000
    4    2    2    8    3   -0.001906   -0.000000
    4    2    2    9    3    0.000734   -0.000000
    4    2    2    1    4   -0.000369   -0.000000
    4    2    2    2    4   -0.002159    0.000000
    4    2    2    3    4   -0.002580    0.000000
    4    2    2    4    4   -0.000559   -0.000000
    4    2    2    5    4   -0.001028    0.000000
    4    2    2    6    4   -0.000194   -0.000000
    4    2    2    7    4   -0.000818   -0.000000
    4    2    2    8    4    0.000173   -0.000000
    4    2    2    9    4    0.000386   -0.000000
    4    2    2    1    5   -0.000186   -0.000000
    4    2    2    2    5    0.001346   -0.000000
    4    2    2    3    5   -0.000560   -0.000000
    4    2    2    4    5    0.001028    0.000000
    4    2    2    5    5   -0.000385    0.000000
    4    2    2    6    5   -0.000270   -0.000000
    4    2    2    7    5   -0.000274    0.000000
    4    2    2    8    5    0.000210    0.000000
    4    2    2    9    5   -0.000423    0.000000
    4    2    2    1    6    0.000350   -0.000000
    4    2    2    2    6   -0.000078    0.000000
    4    2    2    3    6   -0.001237   -0.000000
    4    2    2    4    6    0.000194   -0.000000
    4    2    2    5    6   -0.000270   -0.000000
    4    2    2    6    6    0.000980    0.000000
    4    2    2    7    6    0.000053   -0.000000
    4    2    2    8    6    0.000890   -0.000000
    4    2    2    9    6    0.000492   -0.000000
    4    2    2    1    7   -0.000498   -0.000000
    4    2    2    2    7    0.001769   -0.000000
    4    2    2    3    7    0.000793    0.000000
    4    2    2    4    7    0.000818    0.000000
    4    2    2    5    7   -0.000274    0.000000
    4    2    2    6    7    0.000053    0.000000
    4    2    2    7    7   -0.000144   -0.000000
    4    2    2    8    7    0.000411    0.000000
    4    2    2    9    7    0.000214    0.000000
    4    2    2    1    8   -0.000211    0.000000
    4    2    2    2    8   -0.000615    0.000000
    4    2    2    3    8    0.001906    0.000000
    4    2    2    4    8   -0.000173    0.000000
    4    2    2    5    8    0.000210    0.000000
    4    2    2    6    8    0.000890   -0.000000
    4    2    2    7    8    0.000411   -0.000000
    4    2    2    8    8    0.000015   -0.000000
    4    2    2    9    8    0.000361    0.000000
    4    2    2    1    9    0.000196   -0.000000
    4    2    2    2    9    0.000199   -0.000000
    4    2    2    3    9   -0.000734    0.000000
    4    2    2    4    9   -0.000386   -0.000000
    4    2    2    5    9   -0.000423   -0.000000
    4    2    2    6    9    0.000492   -0.000000
    4    2    2    7    9    0.000214    0.000000
    4    2    2    8    9    0.000361   -0.000000
    4    2    2    9    9    0.000395   -0.000000
    4    3    1    1    1   -0.002532   -0.000000
    4    3    1    2    1   -0.000494    0.000000
    4    3    1    3    1   -0.000300    0.000000
    4    3    1    4    1    0.000072    0.000000
    4    3    1    5    1    0.001029    0.000000
    4    3    1    6    1    0.000174    0.000000
    4    3    1    7    1   -0.000118    0.000000
    4    3    1    8    1    0.000562    0.000000
    4    3    1    9    1   -0.001577   -0.000000
    4    3    1    1    2    0.000494   -0.000000
    4    3    1    2    2   -0.004217   -0.000000
    4    3    1    3    2    0.002962    0.000000
    4    3    1    4    2   -0.002056    0.000000
    4    3    1    5    2   -0.000999    0.000000
    4    3    1    6    2   -0.000983   -0.000000
    4    3    1    7    2    0.000691   -0.000000
    4    3    1    8    2   -0.000030   -0.000000
    4    3    1    9    2    0.000072    0.000000
    4    3    1    1    3    0.000300    0.000000
    4    3    1    2    3    0.002962   -0.000000
    4    3    1    3    3   -0.002398    0.000000
    4    3    1    4    3    0.002407   -0.000000
    4    3    1    5    3    0.000341    0.000000
    4    3    1    6    3   -0.001421    0.000000
    4    3    1    7    3   -0.000343   -0.000000
    4    3    1    8    3   -0.001312    0.000000
    4    3    1    9    3    0.000349    0.000000
    4    3    1    1    4   -0.000072   -0.000000
    4    3    1    2    4   -0.002056    0.000000
    4    3    1    3    4    0.002407    0.000000
    4    3    1    4    4   -0.000649   -0.000000
    4    3    1    5    4   -0.000264    0.000000
    4    3    1    6    4   -0.000401   -0.000000
    4    3    1    7    4   -0.001704   -0.000000
    4    3    1    8    4   -0.001346    0.000000
    4    3    1    9    4   -0.001017   -0.000000
    4    3    1    1    5    0.001029    0.000000
    4    3    1    2    5    0.000999    0.000000
    4    3    1    3    5   -0.000341   -0.000000
    4    3    1    4    5    0.000264   -0.000000
    4    3    1    5    5   -0.000763   -0.000000
    4    3    1    6    5    0.000039   -0.000000
    4    3    1    7    5   -0.000023    0.000000
    4    3    1    8    5    0.000534    0.000000
    4    3    1    9    5   -0.001509   -0.000000
    4    3    1    1    6    0.000174   -0.000000
    4    3    1    2    6    0.000983    0.000000
    4    3    1    3    6    0.001421    0.000000
    4    3    1    4    6    0.000401    0.000000
    4    3    1    5    6    0.000039    0.000000
    4    3    1    6    6    0.000172   -0.000000
    4    3    1    7    6   -0.000072    0.000000
    4    3    1    8    6    0.000147    0.000000
    4    3    1    9    6   -0.000036   -0.000000
    4    3    1    1    7   -0.000118   -0.000000
    4    3    1    2    7   -0.000691    0.000000
    4    3    1    3    7    0.000343    0.000000
    4    3    1    4    7    0.001704   -0.000000
    4    3    1    5    7   -0.000023   -0.000000
    4    3    1    6    7   -0.000072   -0.000000
    4    3    1    7    7    0.000118   -0.000000
    4    3    1    8    7    0.000158   -0.000000
    4    3    1    9    7    0.000107    0.000000
    4    3    1    1    8    0.000562    0.000000
    4    3    1    2    8    0.000030    0.000000
    4    3    1    3    8    0.001312    0.000000
    4    3    1    4    8    0.001346   -0.000000
    4    3    1    5    8    0.000534    0.000000
    4    3    1    6    8    0.000147    0.000000
    4    3    1    7    8    0.000158   -0.000000
    4    3    1    8    8    0.000219   -0.000000
    4    3    1    9    8   -0.000308    0.000000
    4    3    1    1    9   -0.001577    0.000000
    4    3    1    2    9   -0.000072   -0.000000
    4    3    1    3    9   -0.000349   -0.000000
    4    3    1    4    9    0.001017    0.000000
    4    3    1    5    9   -0.001509    0.000000
    4    3    1    6    9   -0.000036    0.000000
    4    3    1    7    9    0.000107   -0.000000
    4    3    1    8    9   -0.000308   -0.000000
    4    3    1    9    9    0.000968   -0.000000
